 Entering Gaussian System, Link 0=g16
 Input=1.gjf
 Output=1.log
 Initial command:
 /nfs-share/home/2100011837/g16/l1.exe "/nfs-share/home/2100011837/g16tmp/Gau-142163.inp" -scrdir="/nfs-share/home/2100011837/g16tmp/"
 Entering Link 1 = /nfs-share/home/2100011837/g16/l1.exe PID=    142164.
  
 Copyright (c) 1988,1990,1992,1993,1995,1998,2003,2009,2016,
            Gaussian, Inc.  All Rights Reserved.
  
 This is part of the Gaussian(R) 16 program.  It is based on
 the Gaussian(R) 09 system (copyright 2009, Gaussian, Inc.),
 the Gaussian(R) 03 system (copyright 2003, Gaussian, Inc.),
 the Gaussian(R) 98 system (copyright 1998, Gaussian, Inc.),
 the Gaussian(R) 94 system (copyright 1995, Gaussian, Inc.),
 the Gaussian 92(TM) system (copyright 1992, Gaussian, Inc.),
 the Gaussian 90(TM) system (copyright 1990, Gaussian, Inc.),
 the Gaussian 88(TM) system (copyright 1988, Gaussian, Inc.),
 the Gaussian 86(TM) system (copyright 1986, Carnegie Mellon
 University), and the Gaussian 82(TM) system (copyright 1983,
 Carnegie Mellon University). Gaussian is a federally registered
 trademark of Gaussian, Inc.
  
 This software contains proprietary and confidential information,
 including trade secrets, belonging to Gaussian, Inc.
  
 This software is provided under written license and may be
 used, copied, transmitted, or stored only in accord with that
 written license.
  
 The following legend is applicable only to US Government
 contracts under FAR:
  
                    RESTRICTED RIGHTS LEGEND
  
 Use, reproduction and disclosure by the US Government is
 subject to restrictions as set forth in subparagraphs (a)
 and (c) of the Commercial Computer Software - Restricted
 Rights clause in FAR 52.227-19.
  
 Gaussian, Inc.
 340 Quinnipiac St., Bldg. 40, Wallingford CT 06492
  
  
 ---------------------------------------------------------------
 Warning -- This program may not be used in any manner that
 competes with the business of Gaussian, Inc. or will provide
 assistance to any competitor of Gaussian, Inc.  The licensee
 of this program is prohibited from giving any competitor of
 Gaussian, Inc. access to this program.  By using this program,
 the user acknowledges that Gaussian, Inc. is engaged in the
 business of creating and licensing software in the field of
 computational chemistry and represents and warrants to the
 licensee that it is not a competitor of Gaussian, Inc. and that
 it will not use this program in any manner prohibited above.
 ---------------------------------------------------------------
  

 Cite this work as:
 Gaussian 16, Revision A.03,
 M. J. Frisch, G. W. Trucks, H. B. Schlegel, G. E. Scuseria, 
 M. A. Robb, J. R. Cheeseman, G. Scalmani, V. Barone, 
 G. A. Petersson, H. Nakatsuji, X. Li, M. Caricato, A. V. Marenich, 
 J. Bloino, B. G. Janesko, R. Gomperts, B. Mennucci, H. P. Hratchian, 
 J. V. Ortiz, A. F. Izmaylov, J. L. Sonnenberg, D. Williams-Young, 
 F. Ding, F. Lipparini, F. Egidi, J. Goings, B. Peng, A. Petrone, 
 T. Henderson, D. Ranasinghe, V. G. Zakrzewski, J. Gao, N. Rega, 
 G. Zheng, W. Liang, M. Hada, M. Ehara, K. Toyota, R. Fukuda, 
 J. Hasegawa, M. Ishida, T. Nakajima, Y. Honda, O. Kitao, H. Nakai, 
 T. Vreven, K. Throssell, J. A. Montgomery, Jr., J. E. Peralta, 
 F. Ogliaro, M. J. Bearpark, J. J. Heyd, E. N. Brothers, K. N. Kudin, 
 V. N. Staroverov, T. A. Keith, R. Kobayashi, J. Normand, 
 K. Raghavachari, A. P. Rendell, J. C. Burant, S. S. Iyengar, 
 J. Tomasi, M. Cossi, J. M. Millam, M. Klene, C. Adamo, R. Cammi, 
 J. W. Ochterski, R. L. Martin, K. Morokuma, O. Farkas, 
 J. B. Foresman, and D. J. Fox, Gaussian, Inc., Wallingford CT, 2016.
 
 ******************************************
 Gaussian 16:  ES64L-G16RevA.03 25-Dec-2016
                25-Oct-2023 
 ******************************************
 %CPU=0-31
 SetSPE:  set environment variable "MP_BIND" = "yes"
 SetSPE:  set environment variable "MP_BLIST" = "0,1,2,3,4,5,6,7,8,9,10,11,12,13,14,15,16,17,18,19,20,21,22,23,24,25,26,27,28,29,30,31"
 Will use up to   32 processors via shared memory.
 %mem=20GB
 -------------------------
 # td PBE1PBE/6-311g(2d,p)
 -------------------------
 1/38=1,172=1/1;
 2/12=2,17=6,18=5,40=1/2;
 3/5=4,6=6,7=102,11=9,25=1,30=1,74=-13/1,2,3,8;
 4//1;
 5/5=2,38=5/2;
 8/6=1,10=2/1;
 9/42=1,70=2/14;
 6/7=2,8=2,9=2,10=2/1;
 99/5=1,9=1/99;
 -
 1
 -
 Symbolic Z-matrix:
 Charge =  1 Multiplicity = 1
 C                     3.2976   -1.25886  -0.02729 
 C                     4.30147  -2.22449  -0.00366 
 C                     5.62456  -1.79223  -0.06696 
 C                     5.9256   -0.42579  -0.14892 
 C                     4.92037   0.5382   -0.17417 
 C                     3.58988   0.10882  -0.11825 
 N                     2.43348   0.90486  -0.14612 
 C                     1.25918   0.21674  -0.03941 
 S                     1.55746  -1.51213   0.05378 
 C                    -1.25923   0.21677   0.03924 
 S                    -1.55752  -1.5121   -0.05398 
 C                    -3.29764  -1.25884   0.02735 
 C                    -3.58991   0.10885   0.1183 
 N                    -2.43351   0.90488   0.14598 
 C                     2.51052   2.3735   -0.25728 
 C                     2.56706   3.07382   1.10141 
 C                    -2.51044   2.37354   0.25732 
 C                    -2.5668    3.07396  -1.10132 
 C                    -4.30152  -2.22446   0.00378 
 C                    -5.6246   -1.79219   0.06715 
 C                    -5.92564  -0.42576   0.14907 
 C                    -4.92041   0.53823   0.17424 
 C                    -0.00002   0.82902  -0.00006 
 H                     4.06045  -3.28038   0.0639 
 H                     6.42713  -2.52226  -0.04909 
 H                     6.96202  -0.10665  -0.19121 
 H                     5.17675   1.59014  -0.22795 
 H                     1.65751   2.70853  -0.85192 
 H                     3.39812   2.59699  -0.85258 
 H                     2.63486   4.15638   0.95409 
 H                     3.44196   2.75212   1.67424 
 H                     1.67462   2.86346   1.69922 
 H                    -1.65747   2.70844   0.8521 
 H                    -3.3981    2.59704   0.85252 
 H                    -2.63447   4.15653  -0.95394 
 H                    -3.44172   2.75239  -1.6742 
 H                    -1.67436   2.86354  -1.69911 
 H                    -4.06051  -3.28035  -0.06373 
 H                    -6.42717  -2.52223   0.04936 
 H                    -6.96206  -0.1066    0.19138 
 H                    -5.17678   1.59017   0.22801 
 H                     0.        1.90913  -0.00003 
 
                          Input orientation:                          
 ---------------------------------------------------------------------
 Center     Atomic      Atomic             Coordinates (Angstroms)
 Number     Number       Type             X           Y           Z
 ---------------------------------------------------------------------
      1          6           0        3.297599   -1.258858   -0.027287
      2          6           0        4.301468   -2.224490   -0.003660
      3          6           0        5.624559   -1.792225   -0.066963
      4          6           0        5.925600   -0.425794   -0.148923
      5          6           0        4.920374    0.538197   -0.174170
      6          6           0        3.589878    0.108817   -0.118253
      7          7           0        2.433480    0.904855   -0.146122
      8          6           0        1.259185    0.216744   -0.039411
      9         16           0        1.557463   -1.512127    0.053781
     10          6           0       -1.259226    0.216766    0.039235
     11         16           0       -1.557517   -1.512095   -0.053982
     12          6           0       -3.297638   -1.258836    0.027351
     13          6           0       -3.589912    0.108845    0.118295
     14          7           0       -2.433509    0.904884    0.145983
     15          6           0        2.510520    2.373498   -0.257278
     16          6           0        2.567058    3.073821    1.101411
     17          6           0       -2.510435    2.373539    0.257318
     18          6           0       -2.566800    3.073963   -1.101321
     19          6           0       -4.301518   -2.224461    0.003784
     20          6           0       -5.624601   -1.792190    0.067147
     21          6           0       -5.925637   -0.425757    0.149074
     22          6           0       -4.920407    0.538231    0.174239
     23          6           0       -0.000019    0.829020   -0.000064
     24          1           0        4.060446   -3.280377    0.063897
     25          1           0        6.427128   -2.522258   -0.049087
     26          1           0        6.962021   -0.106645   -0.191209
     27          1           0        5.176749    1.590135   -0.227954
     28          1           0        1.657513    2.708534   -0.851922
     29          1           0        3.398123    2.596990   -0.852579
     30          1           0        2.634856    4.156384    0.954087
     31          1           0        3.441960    2.752116    1.674238
     32          1           0        1.674616    2.863459    1.699221
     33          1           0       -1.657469    2.708440    0.852098
     34          1           0       -3.398096    2.597040    0.852516
     35          1           0       -2.634473    4.156527   -0.953938
     36          1           0       -3.441716    2.752389   -1.674203
     37          1           0       -1.674361    2.863537   -1.699113
     38          1           0       -4.060509   -3.280354   -0.063726
     39          1           0       -6.427168   -2.522228    0.049357
     40          1           0       -6.962056   -0.106604    0.191378
     41          1           0       -5.176775    1.590171    0.228011
     42          1           0        0.000001    1.909125   -0.000028
 ---------------------------------------------------------------------
                    Distance matrix (angstroms):
                    1          2          3          4          5
     1  C    0.000000
     2  C    1.393110   0.000000
     3  C    2.387634   1.393352   0.000000
     4  C    2.759562   2.427800   1.401598   0.000000
     5  C    2.425774   2.836293   2.436850   1.392981   0.000000
     6  C    1.401512   2.442092   2.785053   2.396319   1.399183
     7  N    2.332912   3.647256   4.178934   3.737049   2.513934
     8  C    2.516482   3.900819   4.805539   4.711717   3.677743
     9  S    1.760338   2.835546   4.078517   4.505755   3.945245
    10  C    4.790255   6.073128   7.171738   7.215955   6.191633
    11  S    4.861789   5.902351   7.187549   7.562149   6.795676
    12  C    6.595463   7.660278   8.938624   9.262459   8.414610
    13  C    7.023504   8.230018   9.410359   9.534265   8.526127
    14  N    6.128409   7.428007   8.500130   8.469497   7.369976
    15  C    3.723761   4.940983   5.204489   4.417075   3.030286
    16  C    4.536492   5.683437   5.864453   5.009036   3.687085
    17  C    6.856279   8.222652   9.145320   8.897639   7.666263
    18  C    7.370079   8.743659   9.583739   9.234512   7.959114
    19  C    7.660283   8.602989   9.935735  10.385204   9.628460
    20  C    8.938625   9.935731  11.249959  11.632750  10.802103
    21  C    9.262464  10.385203  11.632753  11.854983  10.893560
    22  C    8.414616   9.628461  10.802107  10.893560   9.846947
    23  C    3.903109   5.275104   6.205746   6.058851   4.932054
    24  H    2.162589   1.085151   2.162908   3.416539   3.921436
    25  H    3.374997   2.146895   1.085074   2.157929   3.413552
    26  H    3.844796   3.405728   2.155324   1.085271   2.141129
    27  H    3.418806   3.920177   3.415671   2.151974   1.084064
    28  H    4.371511   5.660810   6.050657   5.341796   3.976930
    29  H    3.944461   4.978289   4.983916   4.002561   2.648795
    30  H    5.543209   6.664115   6.735489   5.748216   4.425814
    31  H    4.359351   5.321720   5.333531   4.426228   3.240950
    32  H    4.754829   5.973892   6.355852   5.683809   4.410372
    33  H    6.408235   7.782998   8.609796   8.266100   7.002228
    34  H    7.776525   9.124882  10.075683   9.852498   8.630751
    35  H    8.085453   9.472470  10.216946   9.742719   8.412851
    36  H    8.013788   9.355049  10.268110  10.008693   8.779368
    37  H    6.671546   8.029515   8.809896   8.425093   7.157038
    38  H    7.630827   8.428589   9.798729  10.386440   9.759600
    39  H    9.806787  10.732898  12.074376  12.530971  11.755121
    40  H   10.326472  11.462568  12.701612  12.896099  11.905525
    41  H    8.944113  10.219706  11.322386  11.290214  10.159765
    42  H    4.572856   5.965686   6.733508   6.370772   5.110757
                    6          7          8          9         10
     6  C    0.000000
     7  N    1.404176   0.000000
     8  C    2.334522   1.365230   0.000000
     9  S    2.605334   2.578598   1.756886   0.000000
    10  C    4.852862   3.760838   2.519639   3.304999   0.000000
    11  S    5.396959   4.666711   3.304982   3.116843   1.756880
    12  C    7.023500   6.128406   4.790243   4.861775   2.516479
    13  C    7.183686   6.081513   4.852861   5.396960   2.334522
    14  N    6.081508   4.875747   3.760837   4.666723   1.365226
    15  C    2.512593   1.474857   2.502977   4.012874   4.353205
    16  C    3.365262   2.505713   3.342887   4.811209   4.891976
    17  C    6.517963   5.173209   4.353142   5.629176   2.502949
    18  C    6.903854   5.533555   4.891780   6.275032   3.342782
    19  C    8.230019   7.428007   6.073118   5.902337   3.900819
    20  C    9.410357   8.500130   7.171728   7.187535   4.805537
    21  C    9.534268   8.469504   7.215955   7.562147   4.711719
    22  C    8.526130   7.369986   6.191636   6.795681   3.677746
    23  C    3.663335   2.439057   1.400723   2.812404   1.400715
    24  H    3.426551   4.495252   4.481918   3.064594   6.366281
    25  H    3.870055   5.263435   5.848920   4.974393   8.160275
    26  H    3.379807   4.640350   5.714014   5.589691   8.230832
    27  H    2.173591   2.828751   4.155606   4.775210   6.586297
    28  H    3.321270   2.086513   2.651011   4.317903   3.938329
    29  H    2.601348   2.071941   3.301798   4.592860   5.305817
    30  H    4.294738   3.438525   4.289554   5.839807   5.614394
    31  H    3.197176   2.782645   3.758884   4.935684   5.585909
    32  H    3.815690   2.795943   3.193826   4.676211   4.285787
    33  H    5.935846   4.580963   3.938300   5.365285   2.650997
    34  H    7.481004   6.153702   5.305809   6.486971   3.301802
    35  H    7.471604   6.075367   5.614163   7.121900   4.289454
    36  H    7.671556   6.345577   5.585742   6.794396   3.758792
    37  H    6.148155   4.808594   4.285536   5.715222   3.193679
    38  H    8.367668   7.726232   6.366273   5.890844   4.481923
    39  H   10.358171   9.502326   8.160262   8.048270   5.848916
    40  H   10.558674   9.455848   8.230834   8.635776   5.714017
    41  H    8.897669   7.650204   6.586304   7.416507   4.155607
    42  H    4.017748   2.636612   2.109798   3.759461   2.109804
                   11         12         13         14         15
    11  S    0.000000
    12  C    1.760334   0.000000
    13  C    2.605332   1.401516   0.000000
    14  N    2.578592   2.332912   1.404177   0.000000
    15  C    5.629217   6.856352   6.518050   5.173284   0.000000
    16  C    6.275164   7.370223   6.904048   5.533787   1.529603
    17  C    4.012868   3.723805   2.512655   1.474876   5.047256
    18  C    4.811185   4.536648   3.365434   2.505681   5.194443
    19  C    2.835550   1.393112   2.442092   3.647256   8.222727
    20  C    4.078517   2.387636   2.785051   4.178934   9.145403
    21  C    4.505756   2.759568   2.396322   3.737054   8.897735
    22  C    3.945244   2.425779   1.399185   2.513940   7.666361
    23  C    2.812388   3.903099   3.663331   2.439049   2.958780
    24  H    5.890859   7.630817   8.367662   7.726228   5.871263
    25  H    8.048292   9.806791  10.358176   9.502328   6.273084
    26  H    8.635777  10.326467  10.558670   9.455838   5.096208
    27  H    7.416498   8.944107   8.897666   7.650191   2.779082
    28  H    5.365336   6.408328   5.935922   4.580986   1.092461
    29  H    6.486964   7.776560   7.481049   6.153721   1.091866
    30  H    7.122068   8.085662   7.471871   6.075657   2.159062
    31  H    6.794484   8.013873   7.671705   6.345783   2.177541
    32  H    5.715407   6.671715   6.148372   4.808873   2.183274
    33  H    4.317857   4.371458   3.321249   2.086540   4.326088
    34  H    4.592871   3.944461   2.601344   2.071958   6.016091
    35  H    5.839780   5.543363   4.294913   3.438516   5.489579
    36  H    4.935701   4.359584   3.197395   2.782595   6.130281
    37  H    4.676138   4.754962   3.815840   2.795891   4.453342
    38  H    3.064605   2.162592   3.426553   4.495256   8.670751
    39  H    4.974389   3.374997   3.870054   5.263435  10.195314
    40  H    5.589691   3.844802   3.379810   4.640356   9.802137
    41  H    4.775207   3.418810   2.173591   2.828755   7.742326
    42  H    3.759457   4.572871   4.017771   2.636625   2.566033
                   16         17         18         19         20
    16  C    0.000000
    17  C    5.194596   0.000000
    18  C    5.586459   1.529598   0.000000
    19  C    8.743793   4.941039   5.683643   0.000000
    20  C    9.583895   5.204565   5.864717   1.393349   0.000000
    21  C    9.234710   4.417169   5.009323   2.427799   1.401597
    22  C    7.959334   3.030383   3.687337   2.836291   2.436846
    23  C    3.583610   2.958711   3.583420   5.275098   6.205738
    24  H    6.609272   8.670678   9.255040   8.428583   9.798717
    25  H    6.894917  10.195231  10.644981  10.732908  12.074381
    26  H    5.576910   9.802036  10.086774  11.462569  12.701609
    27  H    3.283142   7.742222   7.932658  10.219706  11.322384
    28  H    2.185456   4.326017   4.247418   7.783105   8.609901
    29  H    2.176261   6.016050   5.989130   9.124923  10.075731
    30  H    1.094643   5.489813   5.696803   9.472673  10.217183
    31  H    1.094111   6.130415   6.626651   9.355116  10.268203
    32  H    1.094569   4.453511   5.086940   8.029671   8.810068
    33  H    4.247622   1.092462   2.185483   5.660755   6.050616
    34  H    5.989351   1.091859   2.176232   4.978292   4.983921
    35  H    5.696722   2.159068   1.094644   6.664329   6.735779
    36  H    6.626667   2.177518   1.094112   5.322024   5.333900
    37  H    5.086923   2.183287   1.094569   5.974072   6.356089
    38  H    9.255146   5.871312   6.609472   1.085151   2.162902
    39  H   10.645125   6.273163   6.895205   2.146888   1.085074
    40  H   10.086986   5.096311   5.577217   3.405726   2.155323
    41  H    7.932906   2.779189   3.283402   3.920175   3.415668
    42  H    3.026461   2.565969   3.026245   5.965703   6.733528
                   21         22         23         24         25
    21  C    0.000000
    22  C    1.392980   0.000000
    23  C    6.058849   4.932054   0.000000
    24  H   10.386432   9.759593   5.777422   0.000000
    25  H   12.530977  11.755127   7.248564   2.487708   0.000000
    26  H   12.896098  11.905524   7.027233   4.307759   2.478204
    27  H   11.290215  10.159765   5.237381   5.005317   4.302002
    28  H    8.266192   7.002303   2.646818   6.517658   7.124251
    29  H    9.852553   8.630804   3.924267   5.985152   6.002264
    30  H    9.743003   8.413156   4.350209   7.624314   7.745447
    31  H   10.008840   8.779548   4.283550   6.274288   6.300801
    32  H    8.425304   7.157275   3.135429   6.790669   7.392489
    33  H    5.341787   3.976942   2.646798   8.317556   9.671248
    34  H    4.002574   2.648808   3.924247   9.528683  11.115535
    35  H    5.748541   4.426098   4.350003  10.058105  11.293252
    36  H    4.426603   3.241259   4.283383   9.782520  11.307386
    37  H    5.684065   4.410591   3.135195   8.587427   9.867294
    38  H    3.416535   3.921434   5.777420   8.121958  10.515011
    39  H    2.157931   3.413551   7.248555  10.514992  12.854673
    40  H    1.085271   2.141130   7.027233  11.471035  13.607478
    41  H    2.151974   1.084064   5.237382  10.443918  12.314196
    42  H    6.370800   5.110786   1.080105   6.589555   7.806889
                   26         27         28         29         30
    26  H    0.000000
    27  H    2.463252   0.000000
    28  H    6.041488   3.745020   0.000000
    29  H    4.521993   2.137153   1.744181   0.000000
    30  H    6.181381   3.800536   2.512596   2.505659   0.000000
    31  H    4.903390   2.824540   3.093159   2.531954   1.772570
    32  H    6.352314   4.195270   2.555900   3.090820   1.774525
    33  H    9.127365   7.008827   3.727303   5.336418   4.531114
    34  H   10.757848   8.701106   5.336359   7.006850   6.232045
    35  H   10.528489   8.254006   4.530810   6.231745   5.604140
    36  H   10.890872   8.815918   5.165289   6.890763   6.767853
    37  H    9.256503   7.122048   3.441387   5.149540   5.223052
    38  H   11.471044  10.443925   8.317680   9.528728  10.058277
    39  H   13.607472  12.314192   9.671362  11.115585  11.293479
    40  H   13.929332  12.263986   9.127456  10.757908  10.528794
    41  H   12.263984  10.363559   7.008886   8.701163   8.254345
    42  H    7.250490   5.191572   2.027837   3.570327   3.592070
                   31         32         33         34         35
    31  H    0.000000
    32  H    1.771024   0.000000
    33  H    5.165462   3.441575   0.000000
    34  H    6.890983   5.149786   1.744188   0.000000
    35  H    6.767770   5.222981   2.512620   2.505673   0.000000
    36  H    7.654871   6.129370   3.093164   2.531866   1.772576
    37  H    6.129327   4.771197   2.555977   3.090808   1.774521
    38  H    9.782548   8.587554   6.517591   5.985153   7.624517
    39  H   11.307459   9.867451   7.124206   6.002270   7.745767
    40  H   10.891038   9.256726   6.041495   4.522013   6.181748
    41  H    8.816138   7.122309   3.745067   2.137169   3.800853
    42  H    3.919296   2.569540   2.027863   3.570311   3.591826
                   36         37         38         39         40
    36  H    0.000000
    37  H    1.771022   0.000000
    38  H    6.274594   6.790846   0.000000
    39  H    6.301204   7.392752   2.487693   0.000000
    40  H    4.903777   6.352591   4.307754   2.478208   0.000000
    41  H    2.824818   4.195494   5.005315   4.302002   2.463253
    42  H    3.919103   2.569296   6.589574   7.806909   7.250520
                   41         42
    41  H    0.000000
    42  H    5.191603   0.000000
 Stoichiometry    C19H19N2S2(1+)
 Framework group  C1[X(C19H19N2S2)]
 Deg. of freedom   120
 Full point group                 C1      NOp   1
 Largest Abelian subgroup         C1      NOp   1
 Largest concise Abelian subgroup C1      NOp   1
                         Standard orientation:                         
 ---------------------------------------------------------------------
 Center     Atomic      Atomic             Coordinates (Angstroms)
 Number     Number       Type             X           Y           Z
 ---------------------------------------------------------------------
      1          6           0        3.297599   -1.258858   -0.027287
      2          6           0        4.301468   -2.224490   -0.003660
      3          6           0        5.624559   -1.792225   -0.066963
      4          6           0        5.925600   -0.425794   -0.148923
      5          6           0        4.920374    0.538197   -0.174170
      6          6           0        3.589878    0.108817   -0.118253
      7          7           0        2.433480    0.904855   -0.146122
      8          6           0        1.259185    0.216744   -0.039411
      9         16           0        1.557463   -1.512127    0.053781
     10          6           0       -1.259226    0.216766    0.039235
     11         16           0       -1.557517   -1.512095   -0.053982
     12          6           0       -3.297638   -1.258836    0.027351
     13          6           0       -3.589912    0.108845    0.118295
     14          7           0       -2.433509    0.904884    0.145983
     15          6           0        2.510520    2.373498   -0.257278
     16          6           0        2.567058    3.073821    1.101411
     17          6           0       -2.510435    2.373539    0.257318
     18          6           0       -2.566800    3.073963   -1.101321
     19          6           0       -4.301518   -2.224461    0.003784
     20          6           0       -5.624601   -1.792190    0.067147
     21          6           0       -5.925637   -0.425757    0.149074
     22          6           0       -4.920407    0.538231    0.174239
     23          6           0       -0.000019    0.829020   -0.000064
     24          1           0        4.060446   -3.280377    0.063897
     25          1           0        6.427128   -2.522258   -0.049087
     26          1           0        6.962021   -0.106645   -0.191209
     27          1           0        5.176749    1.590135   -0.227954
     28          1           0        1.657513    2.708534   -0.851922
     29          1           0        3.398123    2.596990   -0.852579
     30          1           0        2.634856    4.156384    0.954087
     31          1           0        3.441960    2.752116    1.674238
     32          1           0        1.674616    2.863459    1.699221
     33          1           0       -1.657469    2.708440    0.852098
     34          1           0       -3.398096    2.597040    0.852516
     35          1           0       -2.634473    4.156527   -0.953938
     36          1           0       -3.441716    2.752389   -1.674203
     37          1           0       -1.674361    2.863537   -1.699113
     38          1           0       -4.060509   -3.280354   -0.063726
     39          1           0       -6.427168   -2.522228    0.049357
     40          1           0       -6.962056   -0.106604    0.191378
     41          1           0       -5.176775    1.590171    0.228011
     42          1           0        0.000001    1.909125   -0.000028
 ---------------------------------------------------------------------
 Rotational constants (GHZ):           0.5197589           0.1187452           0.0985331
 Standard basis: 6-311G(2d,p) (5D, 7F)
 There are   705 symmetry adapted cartesian basis functions of A   symmetry.
 There are   659 symmetry adapted basis functions of A   symmetry.
   659 basis functions,  1054 primitive gaussians,   705 cartesian basis functions
    89 alpha electrons       89 beta electrons
       nuclear repulsion energy      2127.8549516239 Hartrees.
 NAtoms=   42 NActive=   42 NUniq=   42 SFac= 1.00D+00 NAtFMM=   60 NAOKFM=F Big=F
 Integral buffers will be    131072 words long.
 Regular integral format.
 Two-electron integral symmetry is turned on.
 One-electron integrals computed using PRISM.
 NBasis=   659 RedAO= T EigKep=  5.59D-05  NBF=   659
 NBsUse=   659 1.00D-06 EigRej= -1.00D+00 NBFU=   659
 ExpMin= 7.71D-02 ExpMax= 9.34D+04 ExpMxC= 3.17D+03 IAcc=3 IRadAn=         5 AccDes= 0.00D+00
 Harris functional with IExCor= 1009 and IRadAn=       5 diagonalized for initial guess.
 HarFok:  IExCor= 1009 AccDes= 0.00D+00 IRadAn=         5 IDoV= 1 UseB2=F ITyADJ=14
 ICtDFT=  3500011 ScaDFX=  1.000000  1.000000  1.000000  1.000000
 FoFCou: FMM=F IPFlag=           0 FMFlag=      100000 FMFlg1=           0
         NFxFlg=           0 DoJE=T BraDBF=F KetDBF=T FulRan=T
         wScrn=  0.000000 ICntrl=       500 IOpCl=  0 I1Cent=   200000004 NGrid=           0
         NMat0=    1 NMatS0=      1 NMatT0=    0 NMatD0=    1 NMtDS0=    0 NMtDT0=    0
 Petite list used in FoFCou.
 Requested convergence on RMS density matrix=1.00D-08 within 128 cycles.
 Requested convergence on MAX density matrix=1.00D-06.
 Requested convergence on             energy=1.00D-06.
 No special actions if energy rises.
 Integral accuracy reduced to 1.0D-05 until final iterations.
 Initial convergence to 1.0D-05 achieved.  Increase integral accuracy.
 SCF Done:  E(RPBE1PBE) =  -1640.13924433     A.U. after   15 cycles
            NFock= 15  Conv=0.47D-08     -V/T= 2.0031
 DoSCS=F DFT=T ScalE2(SS,OS)=  1.000000  1.000000
 ExpMin= 7.71D-02 ExpMax= 9.34D+04 ExpMxC= 3.17D+03 IAcc=3 IRadAn=         5 AccDes= 0.00D+00
 HarFok:  IExCor=  205 AccDes= 0.00D+00 IRadAn=         5 IDoV=-2 UseB2=F ITyADJ=14
 ICtDFT= 12500011 ScaDFX=  1.000000  1.000000  1.000000  1.000000
 GSVD:  LWork=       -1209 too small for GESVD, short by        5270 words or        5270 for optimal perf.
 Range of M.O.s used for correlation:    32   659
 NBasis=   659 NAE=    89 NBE=    89 NFC=    31 NFV=     0
 NROrb=    628 NOA=    58 NOB=    58 NVA=   570 NVB=   570

 **** Warning!!: The largest alpha MO coefficient is  0.17649710D+02

 Orbital symmetries:
       Occupied  (A) (A) (A) (A) (A) (A) (A) (A) (A) (A) (A) (A)
                 (A) (A) (A) (A) (A) (A) (A) (A) (A) (A) (A) (A)
                 (A) (A) (A) (A) (A) (A) (A) (A) (A) (A) (A) (A)
                 (A) (A) (A) (A) (A) (A) (A) (A) (A) (A) (A) (A)
                 (A) (A) (A) (A) (A) (A) (A) (A) (A) (A) (A) (A)
                 (A) (A) (A) (A) (A) (A) (A) (A) (A) (A) (A) (A)
                 (A) (A) (A) (A) (A) (A) (A) (A) (A) (A) (A) (A)
                 (A) (A) (A) (A) (A)
       Virtual   (A) (A) (A) (A) (A) (A) (A) (A) (A) (A) (A) (A)
                 (A) (A) (A) (A) (A) (A) (A) (A) (A) (A) (A) (A)
                 (A) (A) (A) (A) (A) (A) (A) (A) (A) (A) (A) (A)
                 (A) (A) (A) (A) (A) (A) (A) (A) (A) (A) (A) (A)
                 (A) (A) (A) (A) (A) (A) (A) (A) (A) (A) (A) (A)
                 (A) (A) (A) (A) (A) (A) (A) (A) (A) (A) (A) (A)
                 (A) (A) (A) (A) (A) (A) (A) (A) (A) (A) (A) (A)
                 (A) (A) (A) (A) (A) (A) (A) (A) (A) (A) (A) (A)
                 (A) (A) (A) (A) (A) (A) (A) (A) (A) (A) (A) (A)
                 (A) (A) (A) (A) (A) (A) (A) (A) (A) (A) (A) (A)
                 (A) (A) (A) (A) (A) (A) (A) (A) (A) (A) (A) (A)
                 (A) (A) (A) (A) (A) (A) (A) (A) (A) (A) (A) (A)
                 (A) (A) (A) (A) (A) (A) (A) (A) (A) (A) (A) (A)
                 (A) (A) (A) (A) (A) (A) (A) (A) (A) (A) (A) (A)
                 (A) (A) (A) (A) (A) (A) (A) (A) (A) (A) (A) (A)
                 (A) (A) (A) (A) (A) (A) (A) (A) (A) (A) (A) (A)
                 (A) (A) (A) (A) (A) (A) (A) (A) (A) (A) (A) (A)
                 (A) (A) (A) (A) (A) (A) (A) (A) (A) (A) (A) (A)
                 (A) (A) (A) (A) (A) (A) (A) (A) (A) (A) (A) (A)
                 (A) (A) (A) (A) (A) (A) (A) (A) (A) (A) (A) (A)
                 (A) (A) (A) (A) (A) (A) (A) (A) (A) (A) (A) (A)
                 (A) (A) (A) (A) (A) (A) (A) (A) (A) (A) (A) (A)
                 (A) (A) (A) (A) (A) (A) (A) (A) (A) (A) (A) (A)
                 (A) (A) (A) (A) (A) (A) (A) (A) (A) (A) (A) (A)
                 (A) (A) (A) (A) (A) (A) (A) (A) (A) (A) (A) (A)
                 (A) (A) (A) (A) (A) (A) (A) (A) (A) (A) (A) (A)
                 (A) (A) (A) (A) (A) (A) (A) (A) (A) (A) (A) (A)
                 (A) (A) (A) (A) (A) (A) (A) (A) (A) (A) (A) (A)
                 (A) (A) (A) (A) (A) (A) (A) (A) (A) (A) (A) (A)
                 (A) (A) (A) (A) (A) (A) (A) (A) (A) (A) (A) (A)
                 (A) (A) (A) (A) (A) (A) (A) (A) (A) (A) (A) (A)
                 (A) (A) (A) (A) (A) (A) (A) (A) (A) (A) (A) (A)
                 (A) (A) (A) (A) (A) (A) (A) (A) (A) (A) (A) (A)
                 (A) (A) (A) (A) (A) (A) (A) (A) (A) (A) (A) (A)
                 (A) (A) (A) (A) (A) (A) (A) (A) (A) (A) (A) (A)
                 (A) (A) (A) (A) (A) (A) (A) (A) (A) (A) (A) (A)
                 (A) (A) (A) (A) (A) (A) (A) (A) (A) (A) (A) (A)
                 (A) (A) (A) (A) (A) (A) (A) (A) (A) (A) (A) (A)
                 (A) (A) (A) (A) (A) (A) (A) (A) (A) (A) (A) (A)
                 (A) (A) (A) (A) (A) (A) (A) (A) (A) (A) (A) (A)
                 (A) (A) (A) (A) (A) (A) (A) (A) (A) (A) (A) (A)
                 (A) (A) (A) (A) (A) (A) (A) (A) (A) (A) (A) (A)
                 (A) (A) (A) (A) (A) (A) (A) (A) (A) (A) (A) (A)
                 (A) (A) (A) (A) (A) (A) (A) (A) (A) (A) (A) (A)
                 (A) (A) (A) (A) (A) (A) (A) (A) (A) (A) (A) (A)
                 (A) (A) (A) (A) (A) (A) (A) (A) (A) (A) (A) (A)
                 (A) (A) (A) (A) (A) (A) (A) (A) (A) (A) (A) (A)
                 (A) (A) (A) (A) (A) (A)
    12 initial guesses have been made.
 Convergence on wavefunction:    0.001000000000000
 Iteration     1 Dimension    12 NMult     0 NNew     12
 CISAX will form    12 AO SS matrices at one time.
 New state      2 was old state      4
 New state      3 was old state      2
 Iteration     2 Dimension    18 NMult    12 NNew      6
 Iteration     3 Dimension    24 NMult    18 NNew      6
 Iteration     4 Dimension    30 NMult    24 NNew      6
 Iteration     5 Dimension    36 NMult    30 NNew      6
 Iteration     6 Dimension    40 NMult    36 NNew      4
 Iteration     7 Dimension    42 NMult    40 NNew      2
 ***********************************************************************
 Excited states from <AA,BB:AA,BB> singles matrix:
 ***********************************************************************
 
 Ground to excited state transition densities written to RWF  633
 Ground to excited state transition electric dipole moments (Au):
       state          X           Y           Z        Dip. S.      Osc.
         1        -3.4591      0.0000      0.0211     11.9661      0.9764
         2         0.0847     -0.0000     -0.0358      0.0085      0.0008
         3         0.0000      0.5343      0.0000      0.2855      0.0290
 Ground to excited state transition velocity dipole moments (Au):
       state          X           Y           Z        Dip. S.      Osc.
         1         0.4223     -0.0000     -0.0035      0.1783      0.9713
         2        -0.0119      0.0000      0.0046      0.0002      0.0007
         3        -0.0000     -0.0829      0.0000      0.0069      0.0301
 Ground to excited state transition magnetic dipole moments (Au):
       state          X           Y           Z
         1         0.0326     -0.0001     -0.7219
         2         0.2412     -0.0000     -0.1611
         3        -0.0000      0.0226     -0.0000
 Ground to excited state transition velocity quadrupole moments (Au):
       state          XX          YY          ZZ          XY          XZ          YZ
         1        -0.0000      0.0000      0.0000     -0.4709      0.0000      0.0324
         2        -0.0000      0.0000      0.0000      0.0010      0.0000     -0.0230
         3        -0.1427     -0.0205      0.0002      0.0000      0.0109      0.0000
 <0|del|b> * <b|rxdel|0> + <0|del|b> * <b|delr+rdel|0>
 Rotatory Strengths (R) in cgs (10**-40 erg-esu-cm/Gauss)
       state          XX          YY          ZZ    R(velocity)    E-M Angle
         1        12.1237     81.9489      0.2531     31.4419       86.93
         2        -1.7788     -8.0611     -7.5788     -5.8062      167.45
         3        -2.2491     -0.0000     -6.4606     -2.9032       90.00
 1/2[<0|r|b>*<b|rxdel|0> + (<0|rxdel|b>*<b|r|0>)*]
 Rotatory Strengths (R) in cgs (10**-40 erg-esu-cm/Gauss)
       state          XX          YY          ZZ     R(length)
         1        79.8626      0.0000     10.7533     30.2053
         2       -14.4516     -0.0000     -4.0820     -6.1779
         3         0.0000     -8.5536      0.0000     -2.8512
  1/2[<0|del|b>*<b|r|0> + (<0|r|b>*<b|del|0>)*] (Au)
       state          X           Y           Z        Dip. S.   Osc.(frdel)
         1        -1.4607     -0.0000     -0.0001      1.4608      0.9738
         2        -0.0010     -0.0000     -0.0002      0.0012      0.0008
         3        -0.0000     -0.0443      0.0000      0.0443      0.0295

 Excitation energies and oscillator strengths:
 
 Excited State   1:      Singlet-A      3.3306 eV  372.25 nm  f=0.9764  <S**2>=0.000
      89 -> 90         0.70394
 This state for optimization and/or second-order correction.
 Total Energy, E(TD-HF/TD-DFT) =  -1640.01684603    
 Copying the excited state density for this state as the 1-particle RhoCI density.
 
 Excited State   2:      Singlet-A      4.0069 eV  309.42 nm  f=0.0008  <S**2>=0.000
      89 -> 91         0.69854
 
 Excited State   3:      Singlet-A      4.1482 eV  298.89 nm  f=0.0290  <S**2>=0.000
      88 -> 90         0.67289
      89 -> 92        -0.18218
 SavETr:  write IOETrn=   770 NScale= 10 NData=  16 NLR=1 NState=    3 LETran=      64.

 **********************************************************************

            Population analysis using the SCF density.

 **********************************************************************

 Orbital symmetries:
       Occupied  (A) (A) (A) (A) (A) (A) (A) (A) (A) (A) (A) (A)
                 (A) (A) (A) (A) (A) (A) (A) (A) (A) (A) (A) (A)
                 (A) (A) (A) (A) (A) (A) (A) (A) (A) (A) (A) (A)
                 (A) (A) (A) (A) (A) (A) (A) (A) (A) (A) (A) (A)
                 (A) (A) (A) (A) (A) (A) (A) (A) (A) (A) (A) (A)
                 (A) (A) (A) (A) (A) (A) (A) (A) (A) (A) (A) (A)
                 (A) (A) (A) (A) (A) (A) (A) (A) (A) (A) (A) (A)
                 (A) (A) (A) (A) (A)
       Virtual   (A) (A) (A) (A) (A) (A) (A) (A) (A) (A) (A) (A)
                 (A) (A) (A) (A) (A) (A) (A) (A) (A) (A) (A) (A)
                 (A) (A) (A) (A) (A) (A) (A) (A) (A) (A) (A) (A)
                 (A) (A) (A) (A) (A) (A) (A) (A) (A) (A) (A) (A)
                 (A) (A) (A) (A) (A) (A) (A) (A) (A) (A) (A) (A)
                 (A) (A) (A) (A) (A) (A) (A) (A) (A) (A) (A) (A)
                 (A) (A) (A) (A) (A) (A) (A) (A) (A) (A) (A) (A)
                 (A) (A) (A) (A) (A) (A) (A) (A) (A) (A) (A) (A)
                 (A) (A) (A) (A) (A) (A) (A) (A) (A) (A) (A) (A)
                 (A) (A) (A) (A) (A) (A) (A) (A) (A) (A) (A) (A)
                 (A) (A) (A) (A) (A) (A) (A) (A) (A) (A) (A) (A)
                 (A) (A) (A) (A) (A) (A) (A) (A) (A) (A) (A) (A)
                 (A) (A) (A) (A) (A) (A) (A) (A) (A) (A) (A) (A)
                 (A) (A) (A) (A) (A) (A) (A) (A) (A) (A) (A) (A)
                 (A) (A) (A) (A) (A) (A) (A) (A) (A) (A) (A) (A)
                 (A) (A) (A) (A) (A) (A) (A) (A) (A) (A) (A) (A)
                 (A) (A) (A) (A) (A) (A) (A) (A) (A) (A) (A) (A)
                 (A) (A) (A) (A) (A) (A) (A) (A) (A) (A) (A) (A)
                 (A) (A) (A) (A) (A) (A) (A) (A) (A) (A) (A) (A)
                 (A) (A) (A) (A) (A) (A) (A) (A) (A) (A) (A) (A)
                 (A) (A) (A) (A) (A) (A) (A) (A) (A) (A) (A) (A)
                 (A) (A) (A) (A) (A) (A) (A) (A) (A) (A) (A) (A)
                 (A) (A) (A) (A) (A) (A) (A) (A) (A) (A) (A) (A)
                 (A) (A) (A) (A) (A) (A) (A) (A) (A) (A) (A) (A)
                 (A) (A) (A) (A) (A) (A) (A) (A) (A) (A) (A) (A)
                 (A) (A) (A) (A) (A) (A) (A) (A) (A) (A) (A) (A)
                 (A) (A) (A) (A) (A) (A) (A) (A) (A) (A) (A) (A)
                 (A) (A) (A) (A) (A) (A) (A) (A) (A) (A) (A) (A)
                 (A) (A) (A) (A) (A) (A) (A) (A) (A) (A) (A) (A)
                 (A) (A) (A) (A) (A) (A) (A) (A) (A) (A) (A) (A)
                 (A) (A) (A) (A) (A) (A) (A) (A) (A) (A) (A) (A)
                 (A) (A) (A) (A) (A) (A) (A) (A) (A) (A) (A) (A)
                 (A) (A) (A) (A) (A) (A) (A) (A) (A) (A) (A) (A)
                 (A) (A) (A) (A) (A) (A) (A) (A) (A) (A) (A) (A)
                 (A) (A) (A) (A) (A) (A) (A) (A) (A) (A) (A) (A)
                 (A) (A) (A) (A) (A) (A) (A) (A) (A) (A) (A) (A)
                 (A) (A) (A) (A) (A) (A) (A) (A) (A) (A) (A) (A)
                 (A) (A) (A) (A) (A) (A) (A) (A) (A) (A) (A) (A)
                 (A) (A) (A) (A) (A) (A) (A) (A) (A) (A) (A) (A)
                 (A) (A) (A) (A) (A) (A) (A) (A) (A) (A) (A) (A)
                 (A) (A) (A) (A) (A) (A) (A) (A) (A) (A) (A) (A)
                 (A) (A) (A) (A) (A) (A) (A) (A) (A) (A) (A) (A)
                 (A) (A) (A) (A) (A) (A) (A) (A) (A) (A) (A) (A)
                 (A) (A) (A) (A) (A) (A) (A) (A) (A) (A) (A) (A)
                 (A) (A) (A) (A) (A) (A) (A) (A) (A) (A) (A) (A)
                 (A) (A) (A) (A) (A) (A) (A) (A) (A) (A) (A) (A)
                 (A) (A) (A) (A) (A) (A) (A) (A) (A) (A) (A) (A)
                 (A) (A) (A) (A) (A) (A)
 The electronic state is 1-A.
 Alpha  occ. eigenvalues --  -89.18613 -89.18613 -14.58409 -14.58409 -10.45633
 Alpha  occ. eigenvalues --  -10.45631 -10.40136 -10.40135 -10.39620 -10.39620
 Alpha  occ. eigenvalues --  -10.38885 -10.38885 -10.36545 -10.35138 -10.35137
 Alpha  occ. eigenvalues --  -10.35091 -10.35091 -10.34245 -10.34244 -10.33929
 Alpha  occ. eigenvalues --  -10.33928 -10.33518 -10.33518  -8.16882  -8.16882
 Alpha  occ. eigenvalues --   -6.10598  -6.10598  -6.10228  -6.10228  -6.09787
 Alpha  occ. eigenvalues --   -6.09787  -1.16476  -1.16123  -1.01363  -1.01227
 Alpha  occ. eigenvalues --   -0.99595  -0.97224  -0.94111  -0.91422  -0.91197
 Alpha  occ. eigenvalues --   -0.89808  -0.88425  -0.87493  -0.84965  -0.79790
 Alpha  occ. eigenvalues --   -0.79750  -0.78910  -0.76209  -0.74198  -0.74110
 Alpha  occ. eigenvalues --   -0.72097  -0.69865  -0.66456  -0.66245  -0.65923
 Alpha  occ. eigenvalues --   -0.63672  -0.62418  -0.60866  -0.60813  -0.60015
 Alpha  occ. eigenvalues --   -0.59289  -0.58754  -0.58388  -0.58258  -0.56485
 Alpha  occ. eigenvalues --   -0.56318  -0.55786  -0.54575  -0.53313  -0.53224
 Alpha  occ. eigenvalues --   -0.52515  -0.51861  -0.50820  -0.50327  -0.50033
 Alpha  occ. eigenvalues --   -0.49351  -0.49123  -0.49087  -0.48865  -0.48101
 Alpha  occ. eigenvalues --   -0.47633  -0.46651  -0.44531  -0.43878  -0.41856
 Alpha  occ. eigenvalues --   -0.37898  -0.37208  -0.36728  -0.32782
 Alpha virt. eigenvalues --   -0.18711  -0.13891  -0.12914  -0.12323  -0.11486
 Alpha virt. eigenvalues --   -0.10753  -0.09120  -0.08007  -0.07978  -0.05450
 Alpha virt. eigenvalues --   -0.04837  -0.03510  -0.02834  -0.02315  -0.01587
 Alpha virt. eigenvalues --   -0.00778  -0.00565   0.00057   0.00957   0.01007
 Alpha virt. eigenvalues --    0.01147   0.01582   0.02128   0.02562   0.03123
 Alpha virt. eigenvalues --    0.03133   0.03193   0.03886   0.04163   0.04454
 Alpha virt. eigenvalues --    0.05195   0.05329   0.05786   0.06607   0.07134
 Alpha virt. eigenvalues --    0.07620   0.07762   0.09036   0.09655   0.11319
 Alpha virt. eigenvalues --    0.11331   0.11780   0.12905   0.13688   0.13845
 Alpha virt. eigenvalues --    0.15478   0.15691   0.16806   0.17788   0.17928
 Alpha virt. eigenvalues --    0.18128   0.18455   0.19091   0.19387   0.20103
 Alpha virt. eigenvalues --    0.20982   0.21186   0.21428   0.22126   0.23031
 Alpha virt. eigenvalues --    0.23283   0.23596   0.23911   0.24879   0.24954
 Alpha virt. eigenvalues --    0.26402   0.26545   0.27452   0.27596   0.27784
 Alpha virt. eigenvalues --    0.28046   0.28154   0.28539   0.29563   0.29585
 Alpha virt. eigenvalues --    0.30236   0.30572   0.31184   0.31419   0.32218
 Alpha virt. eigenvalues --    0.32966   0.33384   0.34380   0.34546   0.34918
 Alpha virt. eigenvalues --    0.35137   0.35226   0.35560   0.36045   0.36476
 Alpha virt. eigenvalues --    0.37059   0.39308   0.40129   0.40497   0.40567
 Alpha virt. eigenvalues --    0.40701   0.41121   0.41580   0.41864   0.43157
 Alpha virt. eigenvalues --    0.43677   0.44383   0.44833   0.45293   0.45744
 Alpha virt. eigenvalues --    0.45913   0.46133   0.46718   0.46808   0.47170
 Alpha virt. eigenvalues --    0.47819   0.48227   0.48430   0.48809   0.48895
 Alpha virt. eigenvalues --    0.49446   0.49614   0.49947   0.50593   0.50698
 Alpha virt. eigenvalues --    0.51586   0.52183   0.52460   0.53250   0.53320
 Alpha virt. eigenvalues --    0.54198   0.54322   0.54781   0.54817   0.55838
 Alpha virt. eigenvalues --    0.56576   0.56653   0.57315   0.58608   0.59204
 Alpha virt. eigenvalues --    0.59370   0.59477   0.59684   0.60133   0.60267
 Alpha virt. eigenvalues --    0.60685   0.61336   0.61551   0.62802   0.63141
 Alpha virt. eigenvalues --    0.63934   0.64148   0.64775   0.65884   0.66256
 Alpha virt. eigenvalues --    0.66605   0.66790   0.66807   0.68391   0.68566
 Alpha virt. eigenvalues --    0.68814   0.69239   0.69458   0.69462   0.70370
 Alpha virt. eigenvalues --    0.70599   0.72012   0.72361   0.73375   0.73399
 Alpha virt. eigenvalues --    0.75370   0.75499   0.76730   0.77004   0.77743
 Alpha virt. eigenvalues --    0.77760   0.79057   0.80009   0.80606   0.81758
 Alpha virt. eigenvalues --    0.81856   0.82754   0.83887   0.84020   0.85415
 Alpha virt. eigenvalues --    0.86530   0.87648   0.88395   0.88540   0.89826
 Alpha virt. eigenvalues --    0.90093   0.90834   0.91678   0.92023   0.93711
 Alpha virt. eigenvalues --    0.93873   0.95215   0.95785   0.96523   0.97045
 Alpha virt. eigenvalues --    0.98935   0.98943   0.99420   1.00273   1.01952
 Alpha virt. eigenvalues --    1.02269   1.02783   1.03568   1.03769   1.04902
 Alpha virt. eigenvalues --    1.05456   1.06450   1.06607   1.06655   1.07440
 Alpha virt. eigenvalues --    1.07572   1.08366   1.08531   1.10238   1.10809
 Alpha virt. eigenvalues --    1.11198   1.11538   1.11977   1.12598   1.15267
 Alpha virt. eigenvalues --    1.15720   1.16285   1.16974   1.17095   1.17436
 Alpha virt. eigenvalues --    1.17667   1.18410   1.18429   1.19274   1.19441
 Alpha virt. eigenvalues --    1.20006   1.20729   1.21582   1.22370   1.23412
 Alpha virt. eigenvalues --    1.24462   1.26370   1.27625   1.28403   1.29473
 Alpha virt. eigenvalues --    1.29830   1.31340   1.32482   1.35044   1.35275
 Alpha virt. eigenvalues --    1.35687   1.36669   1.38234   1.39409   1.39552
 Alpha virt. eigenvalues --    1.42445   1.42932   1.43342   1.44861   1.44879
 Alpha virt. eigenvalues --    1.46615   1.46842   1.47909   1.48470   1.48958
 Alpha virt. eigenvalues --    1.49905   1.51159   1.51803   1.52789   1.53708
 Alpha virt. eigenvalues --    1.54383   1.56520   1.56559   1.60736   1.61043
 Alpha virt. eigenvalues --    1.61070   1.61828   1.63073   1.63674   1.63684
 Alpha virt. eigenvalues --    1.64452   1.65144   1.66583   1.67715   1.69926
 Alpha virt. eigenvalues --    1.71713   1.73128   1.74248   1.74880   1.75038
 Alpha virt. eigenvalues --    1.75345   1.76342   1.77295   1.79482   1.80842
 Alpha virt. eigenvalues --    1.81807   1.85170   1.86216   1.87077   1.87313
 Alpha virt. eigenvalues --    1.88146   1.90079   1.93496   1.95720   1.97372
 Alpha virt. eigenvalues --    2.00429   2.00859   2.01513   2.01713   2.02196
 Alpha virt. eigenvalues --    2.04706   2.04743   2.05494   2.07891   2.08673
 Alpha virt. eigenvalues --    2.10664   2.10796   2.11555   2.11842   2.14048
 Alpha virt. eigenvalues --    2.14192   2.15635   2.16208   2.16240   2.17236
 Alpha virt. eigenvalues --    2.17980   2.18536   2.19079   2.20453   2.22499
 Alpha virt. eigenvalues --    2.26159   2.26709   2.26713   2.28817   2.29627
 Alpha virt. eigenvalues --    2.30140   2.33253   2.33471   2.34636   2.35548
 Alpha virt. eigenvalues --    2.37642   2.39169   2.40531   2.41789   2.42557
 Alpha virt. eigenvalues --    2.43418   2.46146   2.47094   2.48197   2.48533
 Alpha virt. eigenvalues --    2.48801   2.49726   2.50339   2.50896   2.52574
 Alpha virt. eigenvalues --    2.53879   2.53976   2.54419   2.55517   2.55713
 Alpha virt. eigenvalues --    2.56120   2.57787   2.58181   2.58753   2.59906
 Alpha virt. eigenvalues --    2.59987   2.60558   2.62099   2.63309   2.63980
 Alpha virt. eigenvalues --    2.67147   2.67408   2.68558   2.69011   2.71298
 Alpha virt. eigenvalues --    2.71350   2.71706   2.72368   2.72834   2.73726
 Alpha virt. eigenvalues --    2.73888   2.78043   2.78802   2.80058   2.81794
 Alpha virt. eigenvalues --    2.82389   2.85591   2.92265   2.92411   2.94020
 Alpha virt. eigenvalues --    2.96726   2.97879   2.98332   2.99012   3.00242
 Alpha virt. eigenvalues --    3.01083   3.01443   3.01628   3.01890   3.03483
 Alpha virt. eigenvalues --    3.05271   3.05311   3.08049   3.08868   3.09335
 Alpha virt. eigenvalues --    3.11756   3.12237   3.12883   3.13811   3.13825
 Alpha virt. eigenvalues --    3.15101   3.15448   3.16247   3.16987   3.17653
 Alpha virt. eigenvalues --    3.18479   3.18987   3.19617   3.19635   3.19964
 Alpha virt. eigenvalues --    3.20913   3.21062   3.21907   3.22694   3.23289
 Alpha virt. eigenvalues --    3.24741   3.25571   3.27250   3.28059   3.28339
 Alpha virt. eigenvalues --    3.29163   3.30203   3.30376   3.31476   3.31745
 Alpha virt. eigenvalues --    3.32115   3.32210   3.33122   3.33252   3.34092
 Alpha virt. eigenvalues --    3.35259   3.36204   3.37440   3.37677   3.38241
 Alpha virt. eigenvalues --    3.38696   3.40274   3.40778   3.41861   3.42116
 Alpha virt. eigenvalues --    3.43051   3.43709   3.44187   3.45260   3.45428
 Alpha virt. eigenvalues --    3.46679   3.47103   3.47615   3.47741   3.48081
 Alpha virt. eigenvalues --    3.48396   3.49131   3.49448   3.50923   3.51428
 Alpha virt. eigenvalues --    3.51582   3.53276   3.55711   3.55866   3.56559
 Alpha virt. eigenvalues --    3.57190   3.58531   3.59018   3.61359   3.61967
 Alpha virt. eigenvalues --    3.63441   3.64126   3.65488   3.66361   3.66740
 Alpha virt. eigenvalues --    3.67261   3.67279   3.69779   3.70457   3.71662
 Alpha virt. eigenvalues --    3.73480   3.75445   3.75607   3.77426   3.78868
 Alpha virt. eigenvalues --    3.79803   3.80482   3.81698   3.81817   3.84072
 Alpha virt. eigenvalues --    3.85494   3.86423   3.89733   3.90341   3.91678
 Alpha virt. eigenvalues --    3.92920   3.94287   3.95245   3.97928   4.00382
 Alpha virt. eigenvalues --    4.04042   4.07966   4.12069   4.12369   4.12488
 Alpha virt. eigenvalues --    4.13502   4.14012   4.16078   4.16756   4.27159
 Alpha virt. eigenvalues --    4.27682   4.33849   4.35245   4.35698   4.37202
 Alpha virt. eigenvalues --    4.38681   4.50855   4.51004   4.56253   4.63917
 Alpha virt. eigenvalues --    4.64588   4.68345   4.69211   4.92809   4.93496
 Alpha virt. eigenvalues --    5.00750   5.02529   5.08844   5.09362   5.14805
 Alpha virt. eigenvalues --    5.16172   5.21067   5.22706   5.30166   5.44126
 Alpha virt. eigenvalues --    5.51653   5.54776   5.72485   5.82749   8.13701
 Alpha virt. eigenvalues --    8.14624  17.19670  17.20690  17.68196  17.68782
 Alpha virt. eigenvalues --   17.72634  17.73598  23.52183  23.58628  23.80144
 Alpha virt. eigenvalues --   23.90388  23.93679  23.95770  23.96216  23.96834
 Alpha virt. eigenvalues --   23.97612  23.99188  24.00343  24.00708  24.03049
 Alpha virt. eigenvalues --   24.07540  24.07687  24.12047  24.12468  24.13920
 Alpha virt. eigenvalues --   24.14921  35.63981  35.64185 189.47603 189.47799
          Condensed to atoms (all electrons):
               1          2          3          4          5          6
     1  C    4.787089   0.508348  -0.027632  -0.022285  -0.028259   0.508010
     2  C    0.508348   4.920279   0.507708  -0.021389  -0.025298  -0.025272
     3  C   -0.027632   0.507708   4.761146   0.499745  -0.017892  -0.027372
     4  C   -0.022285  -0.021389   0.499745   4.739257   0.523674  -0.020318
     5  C   -0.028259  -0.025298  -0.017892   0.523674   4.870744   0.460482
     6  C    0.508010  -0.025272  -0.027372  -0.020318   0.460482   4.717377
     7  N   -0.003250   0.001442  -0.000213   0.001573  -0.028554   0.359177
     8  C   -0.013603   0.002517  -0.000094  -0.000240   0.000860  -0.076154
     9  S    0.327064  -0.043763   0.000625   0.001686   0.000164  -0.097060
    10  C    0.000548  -0.000004  -0.000000   0.000000   0.000003  -0.000241
    11  S   -0.001559  -0.000099   0.000006  -0.000004   0.000007   0.000203
    12  C   -0.000001   0.000000  -0.000000   0.000000  -0.000000  -0.000001
    13  C   -0.000001  -0.000000   0.000000  -0.000000   0.000000   0.000001
    14  N   -0.000001   0.000000  -0.000000   0.000000  -0.000000  -0.000002
    15  C    0.003365   0.000085  -0.000056   0.000075   0.004363  -0.073007
    16  C   -0.000298   0.000002  -0.000000  -0.000091  -0.001935   0.000850
    17  C    0.000000   0.000000  -0.000000   0.000000   0.000000  -0.000001
    18  C   -0.000000  -0.000000   0.000000  -0.000000  -0.000000   0.000000
    19  C    0.000000   0.000000  -0.000000  -0.000000  -0.000000  -0.000000
    20  C   -0.000000  -0.000000   0.000000  -0.000000   0.000000   0.000000
    21  C    0.000000  -0.000000  -0.000000   0.000000  -0.000000  -0.000000
    22  C   -0.000000  -0.000000   0.000000  -0.000000   0.000000   0.000000
    23  C   -0.003662   0.000096   0.000001  -0.000003   0.000150   0.001962
    24  H   -0.042884   0.419442  -0.033693   0.004280  -0.000071   0.006370
    25  H    0.004998  -0.042287   0.420050  -0.036928   0.005556  -0.000327
    26  H    0.000056   0.005062  -0.037915   0.419148  -0.041764   0.005758
    27  H    0.003739  -0.000362   0.005592  -0.026418   0.424231  -0.062023
    28  H   -0.000077  -0.000000   0.000003  -0.000018  -0.000186   0.004669
    29  H   -0.000226  -0.000031  -0.000036   0.000410   0.005435  -0.009927
    30  H    0.000015   0.000000   0.000000   0.000000  -0.000054  -0.000229
    31  H   -0.000056  -0.000034   0.000001   0.000039   0.002416   0.002185
    32  H   -0.000077   0.000003  -0.000002   0.000012   0.000119   0.000125
    33  H    0.000001   0.000000  -0.000000   0.000000   0.000000   0.000004
    34  H   -0.000000   0.000000   0.000000  -0.000000   0.000000   0.000000
    35  H    0.000000   0.000000  -0.000000   0.000000  -0.000000  -0.000000
    36  H    0.000000   0.000000  -0.000000   0.000000   0.000000   0.000000
    37  H    0.000000   0.000000  -0.000000  -0.000000  -0.000000   0.000002
    38  H   -0.000000   0.000000   0.000000  -0.000000   0.000000   0.000000
    39  H    0.000000  -0.000000   0.000000   0.000000   0.000000  -0.000000
    40  H   -0.000000   0.000000  -0.000000   0.000000  -0.000000   0.000000
    41  H    0.000000  -0.000000   0.000000  -0.000000   0.000000   0.000000
    42  H    0.000033   0.000015  -0.000001   0.000000  -0.000047  -0.000923
               7          8          9         10         11         12
     1  C   -0.003250  -0.013603   0.327064   0.000548  -0.001559  -0.000001
     2  C    0.001442   0.002517  -0.043763  -0.000004  -0.000099   0.000000
     3  C   -0.000213  -0.000094   0.000625  -0.000000   0.000006  -0.000000
     4  C    0.001573  -0.000240   0.001686   0.000000  -0.000004   0.000000
     5  C   -0.028554   0.000860   0.000164   0.000003   0.000007  -0.000000
     6  C    0.359177  -0.076154  -0.097060  -0.000241   0.000203  -0.000001
     7  N    6.395324   0.450167   0.019673  -0.001372   0.000850  -0.000001
     8  C    0.450167   4.668377   0.326670   0.011375  -0.009632   0.000548
     9  S    0.019673   0.326670  15.293070  -0.009632   0.003849  -0.001560
    10  C   -0.001372   0.011375  -0.009632   4.668380   0.326668  -0.013603
    11  S    0.000850  -0.009632   0.003849   0.326668  15.293065   0.327068
    12  C   -0.000001   0.000548  -0.001560  -0.013603   0.327068   4.787112
    13  C   -0.000002  -0.000241   0.000203  -0.076150  -0.097062   0.508002
    14  N   -0.000021  -0.001372   0.000850   0.450166   0.019674  -0.003252
    15  C    0.325637  -0.070750   0.007266  -0.000353  -0.000076   0.000000
    16  C   -0.044527   0.000831  -0.000480  -0.000133   0.000002  -0.000000
    17  C    0.000018  -0.000353  -0.000076  -0.070751   0.007267   0.003365
    18  C    0.000002  -0.000132   0.000002   0.000830  -0.000480  -0.000299
    19  C    0.000000  -0.000004  -0.000099   0.002517  -0.043763   0.508347
    20  C   -0.000000  -0.000000   0.000006  -0.000094   0.000625  -0.027632
    21  C    0.000000   0.000000  -0.000004  -0.000240   0.001685  -0.022285
    22  C   -0.000000   0.000003   0.000007   0.000860   0.000164  -0.028264
    23  C   -0.003927   0.397916  -0.052553   0.397906  -0.052548  -0.003662
    24  H   -0.000190  -0.000077  -0.004732  -0.000001   0.000011  -0.000000
    25  H    0.000018   0.000007  -0.000170  -0.000000   0.000000   0.000000
    26  H   -0.000057   0.000016   0.000101  -0.000000   0.000000  -0.000000
    27  H   -0.004408  -0.000473  -0.000533   0.000001   0.000001   0.000000
    28  H   -0.023345  -0.010855  -0.000271   0.000915  -0.000093   0.000001
    29  H   -0.022173   0.005075  -0.000408  -0.000033   0.000004  -0.000000
    30  H    0.003977  -0.000327   0.000027   0.000007  -0.000000   0.000000
    31  H   -0.001387  -0.000029  -0.000029   0.000016   0.000000   0.000000
    32  H   -0.001711   0.002896  -0.000518  -0.000009  -0.000010   0.000000
    33  H   -0.000065   0.000915  -0.000093  -0.010853  -0.000270  -0.000077
    34  H    0.000001  -0.000033   0.000004   0.005075  -0.000408  -0.000225
    35  H   -0.000000   0.000007  -0.000000  -0.000327   0.000027   0.000015
    36  H   -0.000000   0.000016   0.000000  -0.000028  -0.000029  -0.000056
    37  H   -0.000020  -0.000009  -0.000010   0.002897  -0.000518  -0.000077
    38  H    0.000000  -0.000001   0.000011  -0.000077  -0.004732  -0.042884
    39  H    0.000000  -0.000000   0.000000   0.000007  -0.000170   0.004998
    40  H   -0.000000  -0.000000   0.000000   0.000016   0.000101   0.000056
    41  H   -0.000000   0.000001   0.000001  -0.000473  -0.000533   0.003739
    42  H   -0.002404  -0.034764   0.005907  -0.034766   0.005907   0.000033
              13         14         15         16         17         18
     1  C   -0.000001  -0.000001   0.003365  -0.000298   0.000000  -0.000000
     2  C   -0.000000   0.000000   0.000085   0.000002   0.000000  -0.000000
     3  C    0.000000  -0.000000  -0.000056  -0.000000  -0.000000   0.000000
     4  C   -0.000000   0.000000   0.000075  -0.000091   0.000000  -0.000000
     5  C    0.000000  -0.000000   0.004363  -0.001935   0.000000  -0.000000
     6  C    0.000001  -0.000002  -0.073007   0.000850  -0.000001   0.000000
     7  N   -0.000002  -0.000021   0.325637  -0.044527   0.000018   0.000002
     8  C   -0.000241  -0.001372  -0.070750   0.000831  -0.000353  -0.000132
     9  S    0.000203   0.000850   0.007266  -0.000480  -0.000076   0.000002
    10  C   -0.076150   0.450166  -0.000353  -0.000133  -0.070751   0.000830
    11  S   -0.097062   0.019674  -0.000076   0.000002   0.007267  -0.000480
    12  C    0.508002  -0.003252   0.000000  -0.000000   0.003365  -0.000299
    13  C    4.717367   0.359179  -0.000001   0.000000  -0.073001   0.000851
    14  N    0.359179   6.395338   0.000018   0.000002   0.325625  -0.044531
    15  C   -0.000001   0.000018   4.860774   0.374869  -0.000010  -0.000058
    16  C    0.000000   0.000002   0.374869   4.807130  -0.000058  -0.000007
    17  C   -0.073001   0.325625  -0.000010  -0.000058   4.860784   0.374872
    18  C    0.000851  -0.044531  -0.000058  -0.000007   0.374872   4.807131
    19  C   -0.025274   0.001442   0.000000  -0.000000   0.000085   0.000002
    20  C   -0.027371  -0.000213  -0.000000   0.000000  -0.000056  -0.000000
    21  C   -0.020320   0.001572   0.000000  -0.000000   0.000075  -0.000091
    22  C    0.460493  -0.028547   0.000000  -0.000000   0.004365  -0.001934
    23  C    0.001962  -0.003930   0.003137  -0.002525   0.003135  -0.002526
    24  H    0.000000   0.000000   0.000013  -0.000000  -0.000000   0.000000
    25  H   -0.000000   0.000000  -0.000001   0.000000   0.000000  -0.000000
    26  H    0.000000  -0.000000  -0.000007  -0.000003   0.000000  -0.000000
    27  H    0.000000  -0.000000   0.001165  -0.000143   0.000000   0.000000
    28  H    0.000004  -0.000065   0.400385  -0.035155   0.000026   0.000402
    29  H    0.000000   0.000001   0.400866  -0.030744  -0.000001  -0.000001
    30  H   -0.000000  -0.000000  -0.026502   0.401398   0.000006  -0.000000
    31  H    0.000000  -0.000000  -0.029051   0.407299   0.000001  -0.000000
    32  H    0.000002  -0.000019  -0.031606   0.405829  -0.000021  -0.000036
    33  H    0.004667  -0.023345   0.000026   0.000402   0.400383  -0.035157
    34  H   -0.009924  -0.022169  -0.000001  -0.000001   0.400862  -0.030740
    35  H   -0.000229   0.003977   0.000006  -0.000000  -0.026504   0.401398
    36  H    0.002184  -0.001386   0.000001  -0.000000  -0.029052   0.407298
    37  H    0.000125  -0.001712  -0.000021  -0.000036  -0.031606   0.405831
    38  H    0.006370  -0.000190  -0.000000   0.000000   0.000013  -0.000000
    39  H   -0.000327   0.000018   0.000000  -0.000000  -0.000001   0.000000
    40  H    0.005758  -0.000057   0.000000  -0.000000  -0.000007  -0.000003
    41  H   -0.062020  -0.004408   0.000000   0.000000   0.001166  -0.000143
    42  H   -0.000923  -0.002405   0.002855  -0.001587   0.002854  -0.001589
              19         20         21         22         23         24
     1  C    0.000000  -0.000000   0.000000  -0.000000  -0.003662  -0.042884
     2  C    0.000000  -0.000000  -0.000000  -0.000000   0.000096   0.419442
     3  C   -0.000000   0.000000  -0.000000   0.000000   0.000001  -0.033693
     4  C   -0.000000  -0.000000   0.000000  -0.000000  -0.000003   0.004280
     5  C   -0.000000   0.000000  -0.000000   0.000000   0.000150  -0.000071
     6  C   -0.000000   0.000000  -0.000000   0.000000   0.001962   0.006370
     7  N    0.000000  -0.000000   0.000000  -0.000000  -0.003927  -0.000190
     8  C   -0.000004  -0.000000   0.000000   0.000003   0.397916  -0.000077
     9  S   -0.000099   0.000006  -0.000004   0.000007  -0.052553  -0.004732
    10  C    0.002517  -0.000094  -0.000240   0.000860   0.397906  -0.000001
    11  S   -0.043763   0.000625   0.001685   0.000164  -0.052548   0.000011
    12  C    0.508347  -0.027632  -0.022285  -0.028264  -0.003662  -0.000000
    13  C   -0.025274  -0.027371  -0.020320   0.460493   0.001962   0.000000
    14  N    0.001442  -0.000213   0.001572  -0.028547  -0.003930   0.000000
    15  C    0.000000  -0.000000   0.000000   0.000000   0.003137   0.000013
    16  C   -0.000000   0.000000  -0.000000  -0.000000  -0.002525  -0.000000
    17  C    0.000085  -0.000056   0.000075   0.004365   0.003135  -0.000000
    18  C    0.000002  -0.000000  -0.000091  -0.001934  -0.002526   0.000000
    19  C    4.920272   0.507713  -0.021391  -0.025295   0.000096   0.000000
    20  C    0.507713   4.761141   0.499746  -0.017894   0.000001   0.000000
    21  C   -0.021391   0.499746   4.739254   0.523675  -0.000003  -0.000000
    22  C   -0.025295  -0.017894   0.523675   4.870730   0.000150   0.000000
    23  C    0.000096   0.000001  -0.000003   0.000150   5.326759  -0.000015
    24  H    0.000000   0.000000  -0.000000   0.000000  -0.000015   0.553328
    25  H   -0.000000   0.000000   0.000000   0.000000   0.000000  -0.006818
    26  H    0.000000  -0.000000   0.000000  -0.000000   0.000000  -0.000249
    27  H   -0.000000   0.000000  -0.000000   0.000000  -0.000010   0.000060
    28  H    0.000000  -0.000000   0.000000   0.000000   0.006654  -0.000001
    29  H    0.000000   0.000000  -0.000000   0.000000  -0.000402   0.000002
    30  H    0.000000  -0.000000   0.000000  -0.000000  -0.000003   0.000000
    31  H    0.000000  -0.000000   0.000000   0.000000   0.000196  -0.000000
    32  H    0.000000  -0.000000  -0.000000  -0.000000   0.002233   0.000000
    33  H   -0.000000   0.000003  -0.000018  -0.000185   0.006655  -0.000000
    34  H   -0.000031  -0.000036   0.000409   0.005435  -0.000402   0.000000
    35  H    0.000000   0.000000   0.000000  -0.000054  -0.000003  -0.000000
    36  H   -0.000034   0.000001   0.000039   0.002414   0.000196   0.000000
    37  H    0.000003  -0.000002   0.000012   0.000119   0.002233  -0.000000
    38  H    0.419441  -0.033693   0.004280  -0.000071  -0.000015   0.000000
    39  H   -0.042287   0.420050  -0.036928   0.005556   0.000000  -0.000000
    40  H    0.005062  -0.037915   0.419148  -0.041764   0.000000   0.000000
    41  H   -0.000362   0.005592  -0.026419   0.424227  -0.000010   0.000000
    42  H    0.000015  -0.000001   0.000000  -0.000047   0.380774   0.000001
              25         26         27         28         29         30
     1  C    0.004998   0.000056   0.003739  -0.000077  -0.000226   0.000015
     2  C   -0.042287   0.005062  -0.000362  -0.000000  -0.000031   0.000000
     3  C    0.420050  -0.037915   0.005592   0.000003  -0.000036   0.000000
     4  C   -0.036928   0.419148  -0.026418  -0.000018   0.000410   0.000000
     5  C    0.005556  -0.041764   0.424231  -0.000186   0.005435  -0.000054
     6  C   -0.000327   0.005758  -0.062023   0.004669  -0.009927  -0.000229
     7  N    0.000018  -0.000057  -0.004408  -0.023345  -0.022173   0.003977
     8  C    0.000007   0.000016  -0.000473  -0.010855   0.005075  -0.000327
     9  S   -0.000170   0.000101  -0.000533  -0.000271  -0.000408   0.000027
    10  C   -0.000000  -0.000000   0.000001   0.000915  -0.000033   0.000007
    11  S    0.000000   0.000000   0.000001  -0.000093   0.000004  -0.000000
    12  C    0.000000  -0.000000   0.000000   0.000001  -0.000000   0.000000
    13  C   -0.000000   0.000000   0.000000   0.000004   0.000000  -0.000000
    14  N    0.000000  -0.000000  -0.000000  -0.000065   0.000001  -0.000000
    15  C   -0.000001  -0.000007   0.001165   0.400385   0.400866  -0.026502
    16  C    0.000000  -0.000003  -0.000143  -0.035155  -0.030744   0.401398
    17  C    0.000000   0.000000   0.000000   0.000026  -0.000001   0.000006
    18  C   -0.000000  -0.000000   0.000000   0.000402  -0.000001  -0.000000
    19  C   -0.000000   0.000000  -0.000000   0.000000   0.000000   0.000000
    20  C    0.000000  -0.000000   0.000000  -0.000000   0.000000  -0.000000
    21  C    0.000000   0.000000  -0.000000   0.000000  -0.000000   0.000000
    22  C    0.000000  -0.000000   0.000000   0.000000   0.000000  -0.000000
    23  C    0.000000   0.000000  -0.000010   0.006654  -0.000402  -0.000003
    24  H   -0.006818  -0.000249   0.000060  -0.000001   0.000002   0.000000
    25  H    0.558598  -0.006831  -0.000216  -0.000000  -0.000000  -0.000000
    26  H   -0.006831   0.561653  -0.007743  -0.000001   0.000004  -0.000000
    27  H   -0.000216  -0.007743   0.568986   0.000111   0.000950   0.000134
    28  H   -0.000000  -0.000001   0.000111   0.554866  -0.023833  -0.001854
    29  H   -0.000000   0.000004   0.000950  -0.023833   0.539493  -0.002255
    30  H   -0.000000  -0.000000   0.000134  -0.001854  -0.002255   0.533148
    31  H    0.000000  -0.000007   0.001201   0.005858  -0.006560  -0.022134
    32  H   -0.000000   0.000000  -0.000093  -0.006806   0.005983  -0.023901
    33  H   -0.000000   0.000000   0.000000  -0.000664  -0.000006  -0.000037
    34  H    0.000000  -0.000000  -0.000000  -0.000006  -0.000000  -0.000000
    35  H    0.000000   0.000000   0.000000  -0.000037  -0.000000  -0.000000
    36  H   -0.000000   0.000000  -0.000000  -0.000012   0.000000   0.000000
    37  H    0.000000  -0.000000  -0.000000   0.001070   0.000001   0.000006
    38  H   -0.000000   0.000000   0.000000  -0.000000   0.000000  -0.000000
    39  H   -0.000000   0.000000  -0.000000  -0.000000   0.000000   0.000000
    40  H    0.000000  -0.000000   0.000000   0.000000  -0.000000   0.000000
    41  H   -0.000000   0.000000  -0.000000   0.000000  -0.000000   0.000000
    42  H    0.000000  -0.000000  -0.000006   0.000587   0.000050   0.000062
              31         32         33         34         35         36
     1  C   -0.000056  -0.000077   0.000001  -0.000000   0.000000   0.000000
     2  C   -0.000034   0.000003   0.000000   0.000000   0.000000   0.000000
     3  C    0.000001  -0.000002  -0.000000   0.000000  -0.000000  -0.000000
     4  C    0.000039   0.000012   0.000000  -0.000000   0.000000   0.000000
     5  C    0.002416   0.000119   0.000000   0.000000  -0.000000   0.000000
     6  C    0.002185   0.000125   0.000004   0.000000  -0.000000   0.000000
     7  N   -0.001387  -0.001711  -0.000065   0.000001  -0.000000  -0.000000
     8  C   -0.000029   0.002896   0.000915  -0.000033   0.000007   0.000016
     9  S   -0.000029  -0.000518  -0.000093   0.000004  -0.000000   0.000000
    10  C    0.000016  -0.000009  -0.010853   0.005075  -0.000327  -0.000028
    11  S    0.000000  -0.000010  -0.000270  -0.000408   0.000027  -0.000029
    12  C    0.000000   0.000000  -0.000077  -0.000225   0.000015  -0.000056
    13  C    0.000000   0.000002   0.004667  -0.009924  -0.000229   0.002184
    14  N   -0.000000  -0.000019  -0.023345  -0.022169   0.003977  -0.001386
    15  C   -0.029051  -0.031606   0.000026  -0.000001   0.000006   0.000001
    16  C    0.407299   0.405829   0.000402  -0.000001  -0.000000  -0.000000
    17  C    0.000001  -0.000021   0.400383   0.400862  -0.026504  -0.029052
    18  C   -0.000000  -0.000036  -0.035157  -0.030740   0.401398   0.407298
    19  C    0.000000   0.000000  -0.000000  -0.000031   0.000000  -0.000034
    20  C   -0.000000  -0.000000   0.000003  -0.000036   0.000000   0.000001
    21  C    0.000000  -0.000000  -0.000018   0.000409   0.000000   0.000039
    22  C    0.000000  -0.000000  -0.000185   0.005435  -0.000054   0.002414
    23  C    0.000196   0.002233   0.006655  -0.000402  -0.000003   0.000196
    24  H   -0.000000   0.000000  -0.000000   0.000000  -0.000000   0.000000
    25  H    0.000000  -0.000000  -0.000000   0.000000   0.000000  -0.000000
    26  H   -0.000007   0.000000   0.000000  -0.000000   0.000000   0.000000
    27  H    0.001201  -0.000093   0.000000  -0.000000   0.000000  -0.000000
    28  H    0.005858  -0.006806  -0.000664  -0.000006  -0.000037  -0.000012
    29  H   -0.006560   0.005983  -0.000006  -0.000000  -0.000000   0.000000
    30  H   -0.022134  -0.023901  -0.000037  -0.000000  -0.000000   0.000000
    31  H    0.526553  -0.024495  -0.000012   0.000000   0.000000   0.000000
    32  H   -0.024495   0.546979   0.001069   0.000001   0.000006   0.000000
    33  H   -0.000012   0.001069   0.554863  -0.023832  -0.001853   0.005858
    34  H    0.000000   0.000001  -0.023832   0.539489  -0.002255  -0.006562
    35  H    0.000000   0.000006  -0.001853  -0.002255   0.533151  -0.022133
    36  H    0.000000   0.000000   0.005858  -0.006562  -0.022133   0.526555
    37  H    0.000000  -0.000038  -0.006805   0.005983  -0.023902  -0.024495
    38  H    0.000000  -0.000000  -0.000001   0.000002   0.000000  -0.000000
    39  H   -0.000000   0.000000  -0.000000  -0.000000  -0.000000   0.000000
    40  H    0.000000  -0.000000  -0.000001   0.000004  -0.000000  -0.000007
    41  H   -0.000000  -0.000000   0.000111   0.000951   0.000134   0.001201
    42  H   -0.000051   0.001082   0.000587   0.000050   0.000062  -0.000051
              37         38         39         40         41         42
     1  C    0.000000  -0.000000   0.000000  -0.000000   0.000000   0.000033
     2  C    0.000000   0.000000  -0.000000   0.000000  -0.000000   0.000015
     3  C   -0.000000   0.000000   0.000000  -0.000000   0.000000  -0.000001
     4  C   -0.000000  -0.000000   0.000000   0.000000  -0.000000   0.000000
     5  C   -0.000000   0.000000   0.000000  -0.000000   0.000000  -0.000047
     6  C    0.000002   0.000000  -0.000000   0.000000   0.000000  -0.000923
     7  N   -0.000020   0.000000   0.000000  -0.000000  -0.000000  -0.002404
     8  C   -0.000009  -0.000001  -0.000000  -0.000000   0.000001  -0.034764
     9  S   -0.000010   0.000011   0.000000   0.000000   0.000001   0.005907
    10  C    0.002897  -0.000077   0.000007   0.000016  -0.000473  -0.034766
    11  S   -0.000518  -0.004732  -0.000170   0.000101  -0.000533   0.005907
    12  C   -0.000077  -0.042884   0.004998   0.000056   0.003739   0.000033
    13  C    0.000125   0.006370  -0.000327   0.005758  -0.062020  -0.000923
    14  N   -0.001712  -0.000190   0.000018  -0.000057  -0.004408  -0.002405
    15  C   -0.000021  -0.000000   0.000000   0.000000   0.000000   0.002855
    16  C   -0.000036   0.000000  -0.000000  -0.000000   0.000000  -0.001587
    17  C   -0.031606   0.000013  -0.000001  -0.000007   0.001166   0.002854
    18  C    0.405831  -0.000000   0.000000  -0.000003  -0.000143  -0.001589
    19  C    0.000003   0.419441  -0.042287   0.005062  -0.000362   0.000015
    20  C   -0.000002  -0.033693   0.420050  -0.037915   0.005592  -0.000001
    21  C    0.000012   0.004280  -0.036928   0.419148  -0.026419   0.000000
    22  C    0.000119  -0.000071   0.005556  -0.041764   0.424227  -0.000047
    23  C    0.002233  -0.000015   0.000000   0.000000  -0.000010   0.380774
    24  H   -0.000000   0.000000  -0.000000   0.000000   0.000000   0.000001
    25  H    0.000000  -0.000000  -0.000000   0.000000  -0.000000   0.000000
    26  H   -0.000000   0.000000   0.000000  -0.000000   0.000000  -0.000000
    27  H   -0.000000   0.000000  -0.000000   0.000000  -0.000000  -0.000006
    28  H    0.001070  -0.000000  -0.000000   0.000000   0.000000   0.000587
    29  H    0.000001   0.000000   0.000000  -0.000000  -0.000000   0.000050
    30  H    0.000006  -0.000000   0.000000   0.000000   0.000000   0.000062
    31  H    0.000000   0.000000  -0.000000   0.000000  -0.000000  -0.000051
    32  H   -0.000038  -0.000000   0.000000  -0.000000  -0.000000   0.001082
    33  H   -0.006805  -0.000001  -0.000000  -0.000001   0.000111   0.000587
    34  H    0.005983   0.000002  -0.000000   0.000004   0.000951   0.000050
    35  H   -0.023902   0.000000  -0.000000  -0.000000   0.000134   0.000062
    36  H   -0.024495  -0.000000   0.000000  -0.000007   0.001201  -0.000051
    37  H    0.546977   0.000000  -0.000000   0.000000  -0.000093   0.001081
    38  H    0.000000   0.553328  -0.006819  -0.000249   0.000060   0.000001
    39  H   -0.000000  -0.006819   0.558598  -0.006831  -0.000216   0.000000
    40  H    0.000000  -0.000249  -0.006831   0.561653  -0.007743  -0.000000
    41  H   -0.000093   0.000060  -0.000216  -0.007743   0.568987  -0.000006
    42  H    0.001081   0.000001   0.000000  -0.000000  -0.000006   0.569681
 Mulliken charges:
               1
     1  C    0.000606
     2  C   -0.206458
     3  C   -0.049972
     4  C   -0.062202
     5  C   -0.154146
     6  C    0.325682
     7  N   -0.420231
     8  C    0.350947
     9  S    0.224805
    10  C    0.350954
    11  S    0.224804
    12  C    0.000597
    13  C    0.325681
    14  N   -0.420235
    15  C   -0.153409
    16  C   -0.280891
    17  C   -0.153406
    18  C   -0.280891
    19  C   -0.206455
    20  C   -0.049972
    21  C   -0.062197
    22  C   -0.154144
    23  C   -0.406015
    24  H    0.105226
    25  H    0.104354
    26  H    0.102777
    27  H    0.096258
    28  H    0.127729
    29  H    0.138363
    30  H    0.138516
    31  H    0.138082
    32  H    0.123002
    33  H    0.127733
    34  H    0.138360
    35  H    0.138513
    36  H    0.138083
    37  H    0.123002
    38  H    0.105226
    39  H    0.104354
    40  H    0.102778
    41  H    0.096256
    42  H    0.107933
 Sum of Mulliken charges =   1.00000
 Mulliken charges with hydrogens summed into heavy atoms:
               1
     1  C    0.000606
     2  C   -0.101232
     3  C    0.054382
     4  C    0.040576
     5  C   -0.057888
     6  C    0.325682
     7  N   -0.420231
     8  C    0.350947
     9  S    0.224805
    10  C    0.350954
    11  S    0.224804
    12  C    0.000597
    13  C    0.325681
    14  N   -0.420235
    15  C    0.112683
    16  C    0.118709
    17  C    0.112688
    18  C    0.118707
    19  C   -0.101228
    20  C    0.054381
    21  C    0.040581
    22  C   -0.057888
    23  C   -0.298081
 Electronic spatial extent (au):  <R**2>=          10356.0028
 Charge=              1.0000 electrons
 Dipole moment (field-independent basis, Debye):
    X=              0.0000    Y=              3.0872    Z=              0.0002  Tot=              3.0872
 Quadrupole moment (field-independent basis, Debye-Ang):
   XX=            -56.2595   YY=           -107.9697   ZZ=           -152.5120
   XY=              0.0000   XZ=             -1.1587   YZ=             -0.0001
 Traceless Quadrupole moment (field-independent basis, Debye-Ang):
   XX=             49.3209   YY=             -2.3893   ZZ=            -46.9316
   XY=              0.0000   XZ=             -1.1587   YZ=             -0.0001
 Octapole moment (field-independent basis, Debye-Ang**2):
  XXX=             -0.0023  YYY=             15.5870  ZZZ=             -0.0007  XYY=              0.0002
  XXY=            -28.6824  XXZ=              0.0097  XZZ=              0.0004  YZZ=             14.6789
  YYZ=              0.0021  XYZ=             -2.2226
 Hexadecapole moment (field-independent basis, Debye-Ang**3):
 XXXX=          -7979.2317 YYYY=          -2290.1795 ZZZZ=           -326.1403 XXXY=              0.0028
 XXXZ=            -73.4063 YYYX=              0.0002 YYYZ=             -0.0028 ZZZX=             14.0819
 ZZZY=              0.0017 XXYY=          -1782.0255 XXZZ=          -2080.7151 YYZZ=           -504.9257
 XXYZ=             -0.0157 YYXZ=             11.0854 ZZXY=              0.0011
 N-N= 2.127854951624D+03 E-N=-8.085850919694D+03  KE= 1.635121913062D+03
 1\1\GINC-CN01\SP\RPBE1PBE TD-FC\6-311G(2d,p)\C19H19N2S2(1+)\2100011837
 \25-Oct-2023\0\\# td PBE1PBE/6-311g(2d,p)\\1\\1,1\C,0,3.297599,-1.2588
 58,-0.027287\C,0,4.301468,-2.22449,-0.00366\C,0,5.624559,-1.792225,-0.
 066963\C,0,5.9256,-0.425794,-0.148923\C,0,4.920374,0.538197,-0.17417\C
 ,0,3.589878,0.108817,-0.118253\N,0,2.43348,0.904855,-0.146122\C,0,1.25
 9185,0.216744,-0.039411\S,0,1.557463,-1.512127,0.053781\C,0,-1.259226,
 0.216766,0.039235\S,0,-1.557517,-1.512095,-0.053982\C,0,-3.297638,-1.2
 58836,0.027351\C,0,-3.589912,0.108845,0.118295\N,0,-2.433509,0.904884,
 0.145983\C,0,2.51052,2.373498,-0.257278\C,0,2.567058,3.073821,1.101411
 \C,0,-2.510435,2.373539,0.257318\C,0,-2.5668,3.073963,-1.101321\C,0,-4
 .301518,-2.224461,0.003784\C,0,-5.624601,-1.79219,0.067147\C,0,-5.9256
 37,-0.425757,0.149074\C,0,-4.920407,0.538231,0.174239\C,0,-0.000019,0.
 82902,-0.000064\H,0,4.060446,-3.280377,0.063897\H,0,6.427128,-2.522258
 ,-0.049087\H,0,6.962021,-0.106645,-0.191209\H,0,5.176749,1.590135,-0.2
 27954\H,0,1.657513,2.708534,-0.851922\H,0,3.398123,2.59699,-0.852579\H
 ,0,2.634856,4.156384,0.954087\H,0,3.44196,2.752116,1.674238\H,0,1.6746
 16,2.863459,1.699221\H,0,-1.657469,2.70844,0.852098\H,0,-3.398096,2.59
 704,0.852516\H,0,-2.634473,4.156527,-0.953938\H,0,-3.441716,2.752389,-
 1.674203\H,0,-1.674361,2.863537,-1.699113\H,0,-4.060509,-3.280354,-0.0
 63726\H,0,-6.427168,-2.522228,0.049357\H,0,-6.962056,-0.106604,0.19137
 8\H,0,-5.176775,1.590171,0.228011\H,0,0.000001,1.909125,-0.000028\\Ver
 sion=ES64L-G16RevA.03\State=1-A\HF=-1640.1392443\RMSD=4.668e-09\PG=C01
  [X(C19H19N2S2)]\\@


    THE DOUGHNUT CREED
 AS YOU RAMBLE ON THROUGH LIFE, BROTHER
 WHATEVER BE YOUR GOAL
 KEEP YOUR EYE UPON THE DOUGHNUT
 AND NOT UPON THE HOLE.
 Job cpu time:       0 days  2 hours 58 minutes  3.5 seconds.
 Elapsed time:       0 days  0 hours  5 minutes 35.8 seconds.
 File lengths (MBytes):  RWF=   2512 Int=      0 D2E=      0 Chk=     96 Scr=     32
 Normal termination of Gaussian 16 at Wed Oct 25 12:54:43 2023.
