 Entering Gaussian System, Link 0=g16
 Input=2.gjf
 Output=2.log
 Initial command:
 /nfs-share/home/2100011837/g16/l1.exe "/nfs-share/home/2100011837/g16tmp/Gau-147069.inp" -scrdir="/nfs-share/home/2100011837/g16tmp/"
 Entering Link 1 = /nfs-share/home/2100011837/g16/l1.exe PID=    147071.
  
 Copyright (c) 1988,1990,1992,1993,1995,1998,2003,2009,2016,
            Gaussian, Inc.  All Rights Reserved.
  
 This is part of the Gaussian(R) 16 program.  It is based on
 the Gaussian(R) 09 system (copyright 2009, Gaussian, Inc.),
 the Gaussian(R) 03 system (copyright 2003, Gaussian, Inc.),
 the Gaussian(R) 98 system (copyright 1998, Gaussian, Inc.),
 the Gaussian(R) 94 system (copyright 1995, Gaussian, Inc.),
 the Gaussian 92(TM) system (copyright 1992, Gaussian, Inc.),
 the Gaussian 90(TM) system (copyright 1990, Gaussian, Inc.),
 the Gaussian 88(TM) system (copyright 1988, Gaussian, Inc.),
 the Gaussian 86(TM) system (copyright 1986, Carnegie Mellon
 University), and the Gaussian 82(TM) system (copyright 1983,
 Carnegie Mellon University). Gaussian is a federally registered
 trademark of Gaussian, Inc.
  
 This software contains proprietary and confidential information,
 including trade secrets, belonging to Gaussian, Inc.
  
 This software is provided under written license and may be
 used, copied, transmitted, or stored only in accord with that
 written license.
  
 The following legend is applicable only to US Government
 contracts under FAR:
  
                    RESTRICTED RIGHTS LEGEND
  
 Use, reproduction and disclosure by the US Government is
 subject to restrictions as set forth in subparagraphs (a)
 and (c) of the Commercial Computer Software - Restricted
 Rights clause in FAR 52.227-19.
  
 Gaussian, Inc.
 340 Quinnipiac St., Bldg. 40, Wallingford CT 06492
  
  
 ---------------------------------------------------------------
 Warning -- This program may not be used in any manner that
 competes with the business of Gaussian, Inc. or will provide
 assistance to any competitor of Gaussian, Inc.  The licensee
 of this program is prohibited from giving any competitor of
 Gaussian, Inc. access to this program.  By using this program,
 the user acknowledges that Gaussian, Inc. is engaged in the
 business of creating and licensing software in the field of
 computational chemistry and represents and warrants to the
 licensee that it is not a competitor of Gaussian, Inc. and that
 it will not use this program in any manner prohibited above.
 ---------------------------------------------------------------
  

 Cite this work as:
 Gaussian 16, Revision A.03,
 M. J. Frisch, G. W. Trucks, H. B. Schlegel, G. E. Scuseria, 
 M. A. Robb, J. R. Cheeseman, G. Scalmani, V. Barone, 
 G. A. Petersson, H. Nakatsuji, X. Li, M. Caricato, A. V. Marenich, 
 J. Bloino, B. G. Janesko, R. Gomperts, B. Mennucci, H. P. Hratchian, 
 J. V. Ortiz, A. F. Izmaylov, J. L. Sonnenberg, D. Williams-Young, 
 F. Ding, F. Lipparini, F. Egidi, J. Goings, B. Peng, A. Petrone, 
 T. Henderson, D. Ranasinghe, V. G. Zakrzewski, J. Gao, N. Rega, 
 G. Zheng, W. Liang, M. Hada, M. Ehara, K. Toyota, R. Fukuda, 
 J. Hasegawa, M. Ishida, T. Nakajima, Y. Honda, O. Kitao, H. Nakai, 
 T. Vreven, K. Throssell, J. A. Montgomery, Jr., J. E. Peralta, 
 F. Ogliaro, M. J. Bearpark, J. J. Heyd, E. N. Brothers, K. N. Kudin, 
 V. N. Staroverov, T. A. Keith, R. Kobayashi, J. Normand, 
 K. Raghavachari, A. P. Rendell, J. C. Burant, S. S. Iyengar, 
 J. Tomasi, M. Cossi, J. M. Millam, M. Klene, C. Adamo, R. Cammi, 
 J. W. Ochterski, R. L. Martin, K. Morokuma, O. Farkas, 
 J. B. Foresman, and D. J. Fox, Gaussian, Inc., Wallingford CT, 2016.
 
 ******************************************
 Gaussian 16:  ES64L-G16RevA.03 25-Dec-2016
                25-Oct-2023 
 ******************************************
 %nprocshared=20
 Will use up to   20 processors via shared memory.
 %mem=20GB
 -------------------------
 # td PBE1PBE/6-311g(2d,p)
 -------------------------
 1/38=1,172=1/1;
 2/12=2,17=6,18=5,40=1/2;
 3/5=4,6=6,7=102,11=9,25=1,30=1,74=-13/1,2,3,8;
 4//1;
 5/5=2,38=5/2;
 8/6=1,10=2/1;
 9/42=1,70=2/14;
 6/7=2,8=2,9=2,10=2/1;
 99/5=1,9=1/99;
 -
 2
 -
 Symbolic Z-matrix:
 Charge =  1 Multiplicity = 1
 C                    -4.28858  -1.22641   0.09999 
 C                    -5.19786  -2.28049   0.0839 
 C                    -6.55823  -1.97434   0.1067 
 C                    -6.98875  -0.64207   0.14217 
 C                    -6.07799   0.41275   0.15983 
 C                    -4.71275   0.11034   0.14419 
 N                    -3.63917   1.01519   0.17159 
 C                    -2.40359   0.44325   0.1117 
 S                    -2.52861  -1.3137    0.0697 
 C                     2.5949    0.78697   0.02597 
 S                     3.85946   1.94413   0.42076 
 C                     5.10685   0.73074   0.18781 
 C                     4.53004  -0.49744  -0.17072 
 N                     3.12828  -0.42951  -0.27526 
 C                    -3.8512    2.47389   0.22366 
 C                    -3.94665   3.11118  -1.16351 
 C                     2.35742  -1.57827  -0.78369 
 C                     1.96043  -2.57228   0.30945 
 C                     6.48658   0.87592   0.32034 
 C                     7.28915  -0.23968   0.09031 
 C                     6.7184   -1.46994  -0.26286 
 C                     5.33931  -1.61585  -0.39642 
 C                    -1.18932   1.13753   0.08087 
 C                     0.06555   0.52543   0.04736 
 C                     1.26277   1.2372    0.05299 
 H                    -4.8582   -3.31073   0.05319 
 H                    -7.28727  -2.77801   0.09377 
 H                    -8.05123  -0.42104   0.15371 
 H                    -6.43187   1.43737   0.17762 
 H                    -3.03834   2.90714   0.81023 
 H                    -4.7646    2.63928   0.79893 
 H                    -4.11681   4.18772  -1.06165 
 H                    -4.77612   2.68667  -1.73712 
 H                    -3.02471   2.96212  -1.73402 
 H                     2.98144  -2.06382  -1.53852 
 H                     1.48967  -1.17891  -1.31173 
 H                     1.3956   -3.39862  -0.13433 
 H                     1.34     -2.10475   1.08059 
 H                     2.84312  -2.99034   0.80232 
 H                     6.92263   1.83085   0.5952 
 H                     8.36632  -0.15286   0.18898 
 H                     7.35853  -2.32956  -0.43349 
 H                     4.91664  -2.57864  -0.66026 
 H                    -1.22645   2.22159   0.07248 
 H                     0.09059  -0.55976   0.05238 
 H                     1.17475   2.31704   0.14991 
 
                          Input orientation:                          
 ---------------------------------------------------------------------
 Center     Atomic      Atomic             Coordinates (Angstroms)
 Number     Number       Type             X           Y           Z
 ---------------------------------------------------------------------
      1          6           0       -4.288580   -1.226410    0.099993
      2          6           0       -5.197859   -2.280494    0.083900
      3          6           0       -6.558232   -1.974340    0.106695
      4          6           0       -6.988747   -0.642065    0.142172
      5          6           0       -6.077993    0.412754    0.159833
      6          6           0       -4.712749    0.110342    0.144185
      7          7           0       -3.639165    1.015186    0.171591
      8          6           0       -2.403589    0.443251    0.111697
      9         16           0       -2.528609   -1.313696    0.069695
     10          6           0        2.594899    0.786965    0.025970
     11         16           0        3.859463    1.944130    0.420763
     12          6           0        5.106850    0.730735    0.187808
     13          6           0        4.530039   -0.497436   -0.170722
     14          7           0        3.128283   -0.429510   -0.275260
     15          6           0       -3.851203    2.473891    0.223655
     16          6           0       -3.946648    3.111184   -1.163512
     17          6           0        2.357415   -1.578270   -0.783694
     18          6           0        1.960428   -2.572280    0.309454
     19          6           0        6.486579    0.875917    0.320338
     20          6           0        7.289151   -0.239683    0.090311
     21          6           0        6.718404   -1.469940   -0.262856
     22          6           0        5.339310   -1.615847   -0.396422
     23          6           0       -1.189322    1.137534    0.080870
     24          6           0        0.065545    0.525426    0.047357
     25          6           0        1.262766    1.237195    0.052991
     26          1           0       -4.858204   -3.310726    0.053193
     27          1           0       -7.287268   -2.778005    0.093771
     28          1           0       -8.051228   -0.421039    0.153713
     29          1           0       -6.431871    1.437365    0.177623
     30          1           0       -3.038338    2.907136    0.810234
     31          1           0       -4.764597    2.639278    0.798933
     32          1           0       -4.116811    4.187724   -1.061647
     33          1           0       -4.776116    2.686672   -1.737120
     34          1           0       -3.024710    2.962123   -1.734019
     35          1           0        2.981439   -2.063816   -1.538520
     36          1           0        1.489670   -1.178912   -1.311727
     37          1           0        1.395597   -3.398621   -0.134330
     38          1           0        1.340000   -2.104748    1.080591
     39          1           0        2.843123   -2.990335    0.802324
     40          1           0        6.922631    1.830845    0.595195
     41          1           0        8.366323   -0.152863    0.188984
     42          1           0        7.358535   -2.329561   -0.433487
     43          1           0        4.916644   -2.578641   -0.660259
     44          1           0       -1.226453    2.221586    0.072480
     45          1           0        0.090592   -0.559758    0.052376
     46          1           0        1.174748    2.317040    0.149911
 ---------------------------------------------------------------------
                    Distance matrix (angstroms):
                    1          2          3          4          5
     1  C    0.000000
     2  C    1.392171   0.000000
     3  C    2.389721   1.394584   0.000000
     4  C    2.762995   2.427988   1.400556   0.000000
     5  C    2.427435   2.834429   2.435502   1.393710   0.000000
     6  C    1.403132   2.440300   2.784441   2.397141   1.398424
     7  N    2.334870   3.646741   4.178807   3.737251   2.512159
     8  C    2.518153   3.902243   4.806852   4.711954   3.674846
     9  S    1.762395   2.838978   4.083587   4.511006   3.948022
    10  C    7.172269   8.374947   9.560917   9.690299   8.681993
    11  S    8.749047   9.999800  11.134694  11.155702  10.058142
    12  C    9.597512  10.736169  11.974897  12.173337  11.189397
    13  C    8.852837   9.893236  11.189636  11.523943  10.652139
    14  N    7.468984   8.536965   9.816362  10.127869   9.254957
    15  C    3.728112   4.943399   5.208497   4.422669   3.034955
    16  C    4.530793   5.673778   5.856309   5.004603   3.684481
    17  C    6.713714   7.637277   8.968747   9.438456   8.718402
    18  C    6.395728   7.167781   8.542026   9.156497   8.576073
    19  C   10.980546  12.105574  13.354277  13.561726  12.574130
    20  C   11.619706  12.652682  13.955620  14.283661  13.383238
    21  C   11.015655  11.948831  13.291352  13.738101  12.941058
    22  C    9.648542  10.569030  11.913570  12.378179  11.609455
    23  C    3.897948   5.267950   6.205612   6.066635   4.942737
    24  C    4.693624   5.964725   7.080026   7.150878   6.145600
    25  C    6.073632   7.356274   8.454871   8.463276   7.387683
    26  H    2.161258   1.085213   2.163073   3.415975   3.919638
    27  H    3.376332   2.147847   1.085144   2.157243   3.412866
    28  H    3.848250   3.406488   2.154992   1.085289   2.142173
    29  H    3.419857   3.918424   3.414781   2.152997   1.084147
    30  H    4.376500   5.665915   6.059161   5.352464   3.985532
    31  H    3.957102   4.990305   4.998179   4.018133   2.662868
    32  H    5.540014   6.657236   6.730274   5.746656   4.425906
    33  H    4.350274   5.307233   5.319833   4.416782   3.234813
    34  H    4.743920   5.959231   6.343711   5.676606   4.405507
    35  H    7.499277   8.341469   9.680912  10.210324   9.544166
    36  H    5.948393   6.919848   8.210564   8.618908   7.872002
    37  H    6.089604   6.691150   8.083939   8.830191   8.394502
    38  H    5.780481   6.615730   7.959117   8.508120   7.887473
    39  H    7.380101   8.104159   9.481647  10.129948   9.569750
    40  H   11.631134  12.809013  14.016124  14.136724  13.084982
    41  H   12.700669  13.730437  15.035521  15.362932  14.455415
    42  H   11.711397  12.567145  13.931776  14.457646  13.726347
    43  H    9.335023  10.146223  11.516344  12.088530  11.423793
    44  H    4.611513   6.003409   6.784897   6.435013   5.178508
    45  H    4.429880   5.561442   6.797857   7.080387   6.245700
    46  H    6.512026   7.858231   8.844026   8.683260   7.498577
                    6          7          8          9         10
     6  C    0.000000
     7  N    1.404306   0.000000
     8  C    2.333260   1.362844   0.000000
     9  S    2.608429   2.582133   1.761890   0.000000
    10  C    7.339858   6.239939   5.011025   5.537601   0.000000
    11  S    8.770524   7.560056   6.447789   7.179425   1.758981
    12  C    9.839274   8.750654   7.516324   7.905307   2.517787
    13  C    9.268101   8.315113   7.002846   7.109753   2.330910
    14  N    7.870779   6.934347   5.613649   5.735957   1.362002
    15  C    2.516931   1.474955   2.496321   4.014819   6.666111
    16  C    3.361850   2.504047   3.335424   4.807411   7.043344
    17  C    7.328000   6.602844   5.249327   4.967042   2.511233
    18  C    7.194099   6.651643   5.308218   4.668294   3.430371
    19  C   11.226847  10.127794   8.903135   9.280670   3.903811
    20  C   12.007124  11.000427   9.716793   9.876353   4.805637
    21  C   11.547044  10.660386   9.327987   9.254310   4.709600
    22  C   10.213514   9.373259   8.028110   7.887503   3.672017
    23  C    3.670650   2.454573   1.399080   2.793267   3.800821
    24  C    4.797266   3.739007   2.471339   3.180016   2.542930
    25  C    6.081521   4.908389   3.751793   4.569666   1.406419
    26  H    3.425368   4.495952   4.485633   3.068455   8.505325
    27  H    3.869527   5.263365   5.850396   4.978917  10.505752
    28  H    3.380518   4.639974   5.713544   5.594928  10.715205
    29  H    2.171978   2.824443   4.149658   4.776551   9.051442
    30  H    3.327060   2.085266   2.638482   4.315512   6.069889
    31  H    2.612834   2.073121   3.296845   4.599721   7.628284
    32  H    4.293509   3.437153   4.281699   5.836775   7.602310
    33  H    3.190737   2.780234   3.752325   4.931411   7.813401
    34  H    3.809171   2.792753   3.183893   4.667133   6.277649
    35  H    8.170617   7.499142   6.164992   5.788753   3.274751
    36  H    6.500143   5.772283   4.451406   4.251242   2.622144
    37  H    7.049985   6.702545   5.408727   4.448363   4.356966
    38  H    6.513006   5.945784   4.630930   4.076004   3.324004
    39  H    8.193811   7.646050   6.308285   5.674801   3.864238
    40  H   11.770540  10.601711   9.441269   9.974479   4.488092
    41  H   13.081797  12.062188  10.786674  10.957249   5.849717
    42  H   12.328939  11.510989  10.162912   9.951924   5.711047
    43  H   10.030103   9.317158   7.956982   7.587141   4.145927
    44  H    4.076365   2.699334   2.132994   3.767471   4.082038
    45  H    4.850727   4.050401   2.688956   2.725608   2.843574
    46  H    6.287461   4.986888   4.039436   5.186861   2.091248
                   11         12         13         14         15
    11  S    0.000000
    12  C    1.755725   0.000000
    13  C    2.600148   1.403445   0.000000
    14  N    2.579387   2.339942   1.407289   0.000000
    15  C    7.731356   9.126149   8.901097   7.575743   0.000000
    16  C    8.050299   9.458247   9.266175   7.961165   1.529537
    17  C    4.014245   3.719504   2.502845   1.473904   7.482092
    18  C    4.900682   4.563406   3.337431   2.509430   7.697159
    19  C    2.837764   1.393662   2.440346   3.651990  10.461004
    20  C    4.079338   2.390325   2.783393   4.181208  11.466854
    21  C    4.505192   2.764629   2.396496   3.737863  11.291904
    22  C    3.940961   2.429364   1.398822   2.512114  10.078491
    23  C    5.124095   6.310206   5.953782   4.606970   2.981920
    24  C    4.067673   5.047438   4.585358   3.224337   4.378186
    25  C    2.716220   3.879647   3.705950   2.523055   5.264145
    26  H   10.185595  10.754247   9.803257   8.496662   5.874087
    27  H   12.110124  12.881547  12.038260  10.683413   6.277406
    28  H   12.146189  13.208435  12.585681  11.187741   5.101541
    29  H   10.306672  11.560342  11.136798   9.751250   2.781430
    30  H    6.975581   8.453888   8.356657   7.094978   1.092028
    31  H    8.660292  10.072809   9.857457   8.536329   1.092056
    32  H    8.417375   9.929141   9.874841   8.627204   2.158651
    33  H    8.932024  10.256903   9.959752   8.621319   2.178389
    34  H    7.285001   8.648398   8.454980   7.175686   2.180355
    35  H    4.546795   3.912428   2.592794   2.070832   8.389341
    36  H    4.286121   4.356529   3.318154   2.078682   6.650210
    37  H    5.909632   5.561362   4.271174   3.440593   7.883112
    38  H    4.814196   4.798561   3.784915   2.800484   6.974730
    39  H    5.052473   4.398688   3.163392   2.792907   8.660636
    40  H    3.070221   2.161774   3.425203   4.501552  10.799400
    41  H    4.976232   3.377116   3.868487   5.265845  12.496759
    42  H    5.589068   3.849871   3.380254   4.640071  12.213239
    43  H    4.768826   3.421603   2.172677   2.822273  10.157978
    44  H    5.105372   6.507431   6.370983   5.110084   2.641179
    45  H    4.539775   5.181366   4.445486   3.058084   4.976958
    46  H    2.723989   4.240192   4.391134   3.397147   5.028939
                   16         17         18         19         20
    16  C    0.000000
    17  C    7.866159   0.000000
    18  C    8.328562   1.529911   0.000000
    19  C   10.772672   4.928683   5.690011   0.000000
    20  C   11.791673   5.184373   5.821024   1.393412   0.000000
    21  C   11.642217   4.393317   4.917421   2.428354   1.401432
    22  C   10.448075   3.007173   3.581881   2.835288   2.435696
    23  C    3.612012   4.549990   4.871950   7.684090   8.589605
    24  C    4.924433   3.220070   3.640750   6.436384   7.264139
    25  C    5.668307   3.134508   3.881315   5.243112   6.204827
    26  H    6.599412   7.467727   6.863287  12.095596  12.529602
    27  H    6.886440   9.758546   9.252498  14.252064  14.795779
    28  H    5.573083  10.514645  10.241355  14.596496  15.341582
    29  H    3.282780   9.341827   9.301898  12.931432  13.823406
    30  H    2.182278   7.195389   7.433871   9.751405  10.820249
    31  H    2.177826   8.427068   8.522082  11.398573  12.413034
    32  H    1.094655   8.674073   9.192954  11.194187  12.289219
    33  H    1.094191   8.365765   8.787836  11.591388  12.548854
    34  H    1.094380   7.105319   7.723794   9.951746  10.952418
    35  H    8.655614   1.093125   2.171637   4.937954   4.953477
    36  H    6.926792   1.091461   2.188907   5.644029   6.040020
    37  H    8.483888   2.158806   1.094905   6.663070   6.690540
    38  H    7.758260   2.188120   1.094609   5.995801   6.312806
    39  H    9.337775   2.178369   1.094002   5.334322   5.276383
    40  H   11.084834   5.862132   6.640227   1.085161   2.162483
    41  H   12.809860   6.251789   6.848619   2.146877   1.085161
    42  H   12.567490   5.069348   5.454396   3.406413   2.155636
    43  H   10.544445   2.750569   3.111205   3.919214   3.415094
    44  H    3.117454   5.293019   5.761382   7.833462   8.864179
    45  H    5.590483   2.621997   2.759098   6.560611   7.205771
    46  H    5.346442   4.176573   4.954614   5.506490   6.627693
                   21         22         23         24         25
    21  C    0.000000
    22  C    1.393208   0.000000
    23  C    8.333619   7.101546   0.000000
    24  C    6.952571   5.709167   1.396600   0.000000
    25  C    6.098551   4.996002   2.454271   1.392833   0.000000
    26  H   11.726305  10.347176   5.766149   6.241747   7.625605
    27  H   14.071143  12.689420   7.246831   8.060935   9.445982
    28  H   14.812689  13.454989   7.037060   8.172461   9.460992
    29  H   13.475020  12.174249   5.252007   6.562394   7.698249
    30  H   10.747294   9.596790   2.661263   3.986052   4.675641
    31  H   12.242238  11.028323   3.943785   5.325740   6.233087
    32  H   12.249454  11.114953   4.379406   5.668723   6.236015
    33  H   12.311575  11.073887   4.309293   5.594374   6.463248
    34  H   10.804433   9.628282   3.160949   4.319776   4.954920
    35  H    3.993108   2.657935   5.501483   4.209705   4.047643
    36  H    5.340832   3.981008   3.805555   2.603845   2.784154
    37  H    5.662915   4.335879   5.225401   4.147312   4.641500
    38  H    5.579880   4.291279   4.231939   3.099939   3.497215
    39  H    4.296977   3.091465   5.815532   4.543731   4.575045
    40  H    3.416598   3.920446   8.157757   7.001705   5.716684
    41  H    2.157426   3.412599   9.642985   8.329649   7.239563
    42  H    1.085279   2.141969   9.238570   7.846647   7.079323
    43  H    2.152553   1.084080   7.186240   5.802509   5.331056
    44  H    8.767016   7.619383   1.084720   2.132334   2.676867
    45  H    6.697439   5.372689   2.125980   1.085485   2.145468
    46  H    6.726345   5.754099   2.642883   2.109675   1.087753
                   26         27         28         29         30
    26  H    0.000000
    27  H    2.487125   0.000000
    28  H    4.307644   2.478410   0.000000
    29  H    5.003627   4.302102   2.465067   0.000000
    30  H    6.522793   7.133551   6.052837   3.751865   0.000000
    31  H    5.997286   6.017315   4.536936   2.147190   1.746953
    32  H    7.617039   7.740037   6.180407   3.802600   2.511364
    33  H    6.259452   6.286552   4.894842   2.822859   3.091519
    34  H    6.775283   7.379654   6.346275   4.193806   2.544884
    35  H    8.096193  10.422129  11.281937  10.188907   8.152590
    36  H    6.833970   9.031454   9.682490   8.474307   6.457659
    37  H    6.257229   8.708004   9.909161   9.206157   7.766244
    38  H    6.397473   8.709583   9.585882   8.588591   6.660474
    39  H    7.744307  10.157360  11.211996  10.296616   8.328974
    40  H   12.865364  14.947045  15.148675  13.366821  10.021255
    41  H   13.597009  15.872471  16.419779  14.883397  11.824375
    42  H   12.265735  14.662150  15.538599  14.308686  11.707468
    43  H    9.828154  12.228809  13.171314  12.067276   9.774346
    44  H    6.617890   7.856834   7.318990   5.265210   2.072966
    45  H    5.662014   7.704229   8.143632   6.822515   4.731163
    46  H    8.250916   9.877669   9.623706   7.657366   4.305152
                   31         32         33         34         35
    31  H    0.000000
    32  H    2.505807   0.000000
    33  H    2.536522   1.773162   0.000000
    34  H    3.089868   1.773941   1.772937   0.000000
    35  H    9.358625   9.470708   9.098694   7.834035   0.000000
    36  H    7.625570   7.765047   7.374535   6.140532   1.749247
    37  H    8.676128   9.423332   8.814180   7.909310   2.503667
    38  H    7.736357   8.600068   8.264628   7.255750   3.091236
    39  H    9.464141  10.170526   9.835140   8.734773   2.521333
    40  H   11.716927  11.409175  11.959633  10.278843   5.937518
    41  H   13.438346  13.275293  13.582950  11.964811   5.969337
    42  H   13.159732  13.211857  13.195143  11.726256   4.522244
    43  H   11.094248  11.293720  11.082994   9.742594   2.186643
    44  H    3.636023   3.675066   4.011367   2.654348   6.218227
    45  H    5.862085   6.440642   6.117716   5.029907   3.626312
    46  H    5.983384   5.741770   6.253823   4.647663   5.030590
                   36         37         38         39         40
    36  H    0.000000
    37  H    2.514403   0.000000
    38  H    2.569583   1.775734   0.000000
    39  H    3.095529   1.771821   1.766657   0.000000
    40  H    6.497080   7.643797   6.847647   6.318945   0.000000
    41  H    7.112894   7.696135   7.346702   6.239645   2.486836
    42  H    6.044739   6.065395   6.210132   4.727874   4.307804
    43  H    3.758697   3.653319   4.005935   2.570628   5.004370
    44  H    4.566918   6.205211   5.130315   6.652687   8.175175
    45  H    2.049768   3.130022   2.237239   3.747873   7.258539
    46  H    3.802268   5.726984   4.521690   5.601549   5.785570
                   41         42         43         44         45
    41  H    0.000000
    42  H    2.478129   0.000000
    43  H    4.301848   2.465015   0.000000
    44  H    9.882962   9.729900   7.830500   0.000000
    45  H    8.286854   7.496083   5.279632   3.077480   0.000000
    46  H    7.603992   7.756963   6.214970   2.404345   3.075853
                   46
    46  H    0.000000
 Stoichiometry    C21H21N2S2(1+)
 Framework group  C1[X(C21H21N2S2)]
 Deg. of freedom   132
 Full point group                 C1      NOp   1
 Largest Abelian subgroup         C1      NOp   1
 Largest concise Abelian subgroup C1      NOp   1
                         Standard orientation:                         
 ---------------------------------------------------------------------
 Center     Atomic      Atomic             Coordinates (Angstroms)
 Number     Number       Type             X           Y           Z
 ---------------------------------------------------------------------
      1          6           0        4.288580   -1.226410   -0.099993
      2          6           0        5.197859   -2.280494   -0.083900
      3          6           0        6.558232   -1.974340   -0.106695
      4          6           0        6.988747   -0.642065   -0.142172
      5          6           0        6.077993    0.412754   -0.159833
      6          6           0        4.712749    0.110342   -0.144185
      7          7           0        3.639165    1.015186   -0.171591
      8          6           0        2.403589    0.443251   -0.111697
      9         16           0        2.528609   -1.313696   -0.069695
     10          6           0       -2.594899    0.786965   -0.025970
     11         16           0       -3.859463    1.944130   -0.420763
     12          6           0       -5.106850    0.730735   -0.187808
     13          6           0       -4.530039   -0.497436    0.170722
     14          7           0       -3.128283   -0.429510    0.275260
     15          6           0        3.851203    2.473891   -0.223655
     16          6           0        3.946648    3.111184    1.163512
     17          6           0       -2.357415   -1.578270    0.783694
     18          6           0       -1.960428   -2.572280   -0.309454
     19          6           0       -6.486579    0.875917   -0.320338
     20          6           0       -7.289151   -0.239683   -0.090311
     21          6           0       -6.718404   -1.469940    0.262856
     22          6           0       -5.339310   -1.615847    0.396422
     23          6           0        1.189322    1.137534   -0.080870
     24          6           0       -0.065545    0.525426   -0.047357
     25          6           0       -1.262766    1.237195   -0.052991
     26          1           0        4.858204   -3.310726   -0.053193
     27          1           0        7.287268   -2.778005   -0.093771
     28          1           0        8.051228   -0.421039   -0.153713
     29          1           0        6.431871    1.437365   -0.177623
     30          1           0        3.038338    2.907136   -0.810234
     31          1           0        4.764597    2.639278   -0.798933
     32          1           0        4.116811    4.187724    1.061647
     33          1           0        4.776116    2.686672    1.737120
     34          1           0        3.024710    2.962123    1.734019
     35          1           0       -2.981439   -2.063816    1.538520
     36          1           0       -1.489670   -1.178912    1.311727
     37          1           0       -1.395597   -3.398621    0.134330
     38          1           0       -1.340000   -2.104748   -1.080591
     39          1           0       -2.843123   -2.990335   -0.802324
     40          1           0       -6.922631    1.830845   -0.595195
     41          1           0       -8.366323   -0.152863   -0.188984
     42          1           0       -7.358535   -2.329561    0.433487
     43          1           0       -4.916644   -2.578641    0.660259
     44          1           0        1.226453    2.221586   -0.072480
     45          1           0       -0.090592   -0.559758   -0.052376
     46          1           0       -1.174748    2.317040   -0.149911
 ---------------------------------------------------------------------
 Rotational constants (GHZ):           0.5428555           0.0706406           0.0633599
 Standard basis: 6-311G(2d,p) (5D, 7F)
 There are   767 symmetry adapted cartesian basis functions of A   symmetry.
 There are   717 symmetry adapted basis functions of A   symmetry.
   717 basis functions,  1146 primitive gaussians,   767 cartesian basis functions
    96 alpha electrons       96 beta electrons
       nuclear repulsion energy      2277.5284184664 Hartrees.
 NAtoms=   46 NActive=   46 NUniq=   46 SFac= 1.00D+00 NAtFMM=   60 NAOKFM=F Big=F
 Integral buffers will be    131072 words long.
 Regular integral format.
 Two-electron integral symmetry is turned on.
 One-electron integrals computed using PRISM.
 NBasis=   717 RedAO= T EigKep=  5.64D-05  NBF=   717
 NBsUse=   717 1.00D-06 EigRej= -1.00D+00 NBFU=   717
 ExpMin= 7.71D-02 ExpMax= 9.34D+04 ExpMxC= 3.17D+03 IAcc=3 IRadAn=         5 AccDes= 0.00D+00
 Harris functional with IExCor= 1009 and IRadAn=       5 diagonalized for initial guess.
 HarFok:  IExCor= 1009 AccDes= 0.00D+00 IRadAn=         5 IDoV= 1 UseB2=F ITyADJ=14
 ICtDFT=  3500011 ScaDFX=  1.000000  1.000000  1.000000  1.000000
 FoFCou: FMM=F IPFlag=           0 FMFlag=      100000 FMFlg1=           0
         NFxFlg=           0 DoJE=T BraDBF=F KetDBF=T FulRan=T
         wScrn=  0.000000 ICntrl=       500 IOpCl=  0 I1Cent=   200000004 NGrid=           0
         NMat0=    1 NMatS0=      1 NMatT0=    0 NMatD0=    1 NMtDS0=    0 NMtDT0=    0
 Petite list used in FoFCou.
 Requested convergence on RMS density matrix=1.00D-08 within 128 cycles.
 Requested convergence on MAX density matrix=1.00D-06.
 Requested convergence on             energy=1.00D-06.
 No special actions if energy rises.
 Integral accuracy reduced to 1.0D-05 until final iterations.
 Initial convergence to 1.0D-05 achieved.  Increase integral accuracy.
 SCF Done:  E(RPBE1PBE) =  -1717.46952836     A.U. after   15 cycles
            NFock= 15  Conv=0.59D-08     -V/T= 2.0031
 DoSCS=F DFT=T ScalE2(SS,OS)=  1.000000  1.000000
 ExpMin= 7.71D-02 ExpMax= 9.34D+04 ExpMxC= 3.17D+03 IAcc=3 IRadAn=         5 AccDes= 0.00D+00
 HarFok:  IExCor=  205 AccDes= 0.00D+00 IRadAn=         5 IDoV=-2 UseB2=F ITyADJ=14
 ICtDFT= 12500011 ScaDFX=  1.000000  1.000000  1.000000  1.000000
 GSVD:  LWork=       -1353 too small for GESVD, short by        5940 words or        5940 for optimal perf.
 Range of M.O.s used for correlation:    34   717
 NBasis=   717 NAE=    96 NBE=    96 NFC=    33 NFV=     0
 NROrb=    684 NOA=    63 NOB=    63 NVA=   621 NVB=   621

 **** Warning!!: The largest alpha MO coefficient is  0.19179933D+02

 Orbital symmetries:
       Occupied  (A) (A) (A) (A) (A) (A) (A) (A) (A) (A) (A) (A)
                 (A) (A) (A) (A) (A) (A) (A) (A) (A) (A) (A) (A)
                 (A) (A) (A) (A) (A) (A) (A) (A) (A) (A) (A) (A)
                 (A) (A) (A) (A) (A) (A) (A) (A) (A) (A) (A) (A)
                 (A) (A) (A) (A) (A) (A) (A) (A) (A) (A) (A) (A)
                 (A) (A) (A) (A) (A) (A) (A) (A) (A) (A) (A) (A)
                 (A) (A) (A) (A) (A) (A) (A) (A) (A) (A) (A) (A)
                 (A) (A) (A) (A) (A) (A) (A) (A) (A) (A) (A) (A)
       Virtual   (A) (A) (A) (A) (A) (A) (A) (A) (A) (A) (A) (A)
                 (A) (A) (A) (A) (A) (A) (A) (A) (A) (A) (A) (A)
                 (A) (A) (A) (A) (A) (A) (A) (A) (A) (A) (A) (A)
                 (A) (A) (A) (A) (A) (A) (A) (A) (A) (A) (A) (A)
                 (A) (A) (A) (A) (A) (A) (A) (A) (A) (A) (A) (A)
                 (A) (A) (A) (A) (A) (A) (A) (A) (A) (A) (A) (A)
                 (A) (A) (A) (A) (A) (A) (A) (A) (A) (A) (A) (A)
                 (A) (A) (A) (A) (A) (A) (A) (A) (A) (A) (A) (A)
                 (A) (A) (A) (A) (A) (A) (A) (A) (A) (A) (A) (A)
                 (A) (A) (A) (A) (A) (A) (A) (A) (A) (A) (A) (A)
                 (A) (A) (A) (A) (A) (A) (A) (A) (A) (A) (A) (A)
                 (A) (A) (A) (A) (A) (A) (A) (A) (A) (A) (A) (A)
                 (A) (A) (A) (A) (A) (A) (A) (A) (A) (A) (A) (A)
                 (A) (A) (A) (A) (A) (A) (A) (A) (A) (A) (A) (A)
                 (A) (A) (A) (A) (A) (A) (A) (A) (A) (A) (A) (A)
                 (A) (A) (A) (A) (A) (A) (A) (A) (A) (A) (A) (A)
                 (A) (A) (A) (A) (A) (A) (A) (A) (A) (A) (A) (A)
                 (A) (A) (A) (A) (A) (A) (A) (A) (A) (A) (A) (A)
                 (A) (A) (A) (A) (A) (A) (A) (A) (A) (A) (A) (A)
                 (A) (A) (A) (A) (A) (A) (A) (A) (A) (A) (A) (A)
                 (A) (A) (A) (A) (A) (A) (A) (A) (A) (A) (A) (A)
                 (A) (A) (A) (A) (A) (A) (A) (A) (A) (A) (A) (A)
                 (A) (A) (A) (A) (A) (A) (A) (A) (A) (A) (A) (A)
                 (A) (A) (A) (A) (A) (A) (A) (A) (A) (A) (A) (A)
                 (A) (A) (A) (A) (A) (A) (A) (A) (A) (A) (A) (A)
                 (A) (A) (A) (A) (A) (A) (A) (A) (A) (A) (A) (A)
                 (A) (A) (A) (A) (A) (A) (A) (A) (A) (A) (A) (A)
                 (A) (A) (A) (A) (A) (A) (A) (A) (A) (A) (A) (A)
                 (A) (A) (A) (A) (A) (A) (A) (A) (A) (A) (A) (A)
                 (A) (A) (A) (A) (A) (A) (A) (A) (A) (A) (A) (A)
                 (A) (A) (A) (A) (A) (A) (A) (A) (A) (A) (A) (A)
                 (A) (A) (A) (A) (A) (A) (A) (A) (A) (A) (A) (A)
                 (A) (A) (A) (A) (A) (A) (A) (A) (A) (A) (A) (A)
                 (A) (A) (A) (A) (A) (A) (A) (A) (A) (A) (A) (A)
                 (A) (A) (A) (A) (A) (A) (A) (A) (A) (A) (A) (A)
                 (A) (A) (A) (A) (A) (A) (A) (A) (A) (A) (A) (A)
                 (A) (A) (A) (A) (A) (A) (A) (A) (A) (A) (A) (A)
                 (A) (A) (A) (A) (A) (A) (A) (A) (A) (A) (A) (A)
                 (A) (A) (A) (A) (A) (A) (A) (A) (A) (A) (A) (A)
                 (A) (A) (A) (A) (A) (A) (A) (A) (A) (A) (A) (A)
                 (A) (A) (A) (A) (A) (A) (A) (A) (A) (A) (A) (A)
                 (A) (A) (A) (A) (A) (A) (A) (A) (A) (A) (A) (A)
                 (A) (A) (A) (A) (A) (A) (A) (A) (A) (A) (A) (A)
                 (A) (A) (A) (A) (A) (A) (A) (A) (A) (A) (A) (A)
                 (A) (A) (A) (A) (A) (A) (A) (A) (A) (A) (A) (A)
                 (A) (A) (A) (A) (A) (A) (A) (A) (A) (A) (A) (A)
                 (A) (A) (A) (A) (A) (A) (A) (A) (A) (A) (A) (A)
                 (A) (A) (A) (A) (A) (A) (A) (A) (A) (A) (A) (A)
                 (A) (A) (A) (A) (A) (A) (A) (A) (A) (A) (A) (A)
                 (A) (A) (A) (A) (A) (A) (A) (A) (A) (A) (A) (A)
                 (A) (A) (A) (A) (A) (A) (A) (A) (A) (A) (A) (A)
                 (A) (A) (A) (A) (A) (A) (A) (A) (A)
    12 initial guesses have been made.
 Convergence on wavefunction:    0.001000000000000
 Iteration     1 Dimension    12 NMult     0 NNew     12
 CISAX will form    12 AO SS matrices at one time.
 Iteration     2 Dimension    18 NMult    12 NNew      6
 Iteration     3 Dimension    24 NMult    18 NNew      6
 Iteration     4 Dimension    30 NMult    24 NNew      6
 Iteration     5 Dimension    36 NMult    30 NNew      6
 Iteration     6 Dimension    42 NMult    36 NNew      6
 Iteration     7 Dimension    46 NMult    42 NNew      4
 Iteration     8 Dimension    50 NMult    46 NNew      4
 ***********************************************************************
 Excited states from <AA,BB:AA,BB> singles matrix:
 ***********************************************************************
 
 Ground to excited state transition densities written to RWF  633
 Ground to excited state transition electric dipole moments (Au):
       state          X           Y           Z        Dip. S.      Osc.
         1         4.7033     -0.1937     -0.0217     22.1594      1.4961
         2         0.6490      0.2978      0.0201      0.5103      0.0481
         3         0.0004     -0.4209      0.0981      0.1867      0.0179
 Ground to excited state transition velocity dipole moments (Au):
       state          X           Y           Z        Dip. S.      Osc.
         1        -0.4779      0.0213      0.0021      0.2288      1.5063
         2        -0.0908     -0.0427     -0.0025      0.0101      0.0475
         3         0.0014      0.0613     -0.0138      0.0040      0.0184
 Ground to excited state transition magnetic dipole moments (Au):
       state          X           Y           Z
         1         0.0635      0.1067      1.4079
         2        -0.0247      0.0240     -0.1449
         3        -0.0519     -0.0583     -0.2153
 Ground to excited state transition velocity quadrupole moments (Au):
       state          XX          YY          ZZ          XY          XZ          YZ
         1         0.2528     -0.0768      0.0015      0.1790      0.0424     -0.0818
         2         0.0459     -0.0083      0.0129     -0.3296      0.0198     -0.0184
         3         0.3920      0.0940      0.0112     -0.4143      0.1028     -0.0179
 <0|del|b> * <b|rxdel|0> + <0|del|b> * <b|delr+rdel|0>
 Rotatory Strengths (R) in cgs (10**-40 erg-esu-cm/Gauss)
       state          XX          YY          ZZ    R(velocity)    E-M Angle
         1        16.5512     39.6472   -231.2971    -58.3662       92.13
         2         2.5384      8.6326     -3.2394      2.6438       83.91
         3        -2.9534     -7.0036      6.6162     -1.1136       92.70
 1/2[<0|r|b>*<b|rxdel|0> + (<0|rxdel|b>*<b|r|0>)*]
 Rotatory Strengths (R) in cgs (10**-40 erg-esu-cm/Gauss)
       state          XX          YY          ZZ     R(length)
         1      -211.1632     14.6157     21.6208    -58.3089
         2        11.3462     -5.0454      2.0550      2.7853
         3         0.0163    -17.3481     14.9317     -0.8001
  1/2[<0|del|b>*<b|r|0> + (<0|r|b>*<b|del|0>)*] (Au)
       state          X           Y           Z        Dip. S.   Osc.(frdel)
         1        -2.2476     -0.0041     -0.0000      2.2518      1.5012
         2        -0.0589     -0.0127     -0.0001      0.0717      0.0478
         3         0.0000     -0.0258     -0.0014      0.0272      0.0181

 Excitation energies and oscillator strengths:
 
 Excited State   1:      Singlet-A      2.7559 eV  449.89 nm  f=1.4961  <S**2>=0.000
      96 -> 97         0.70788
 This state for optimization and/or second-order correction.
 Total Energy, E(TD-HF/TD-DFT) =  -1717.36825219    
 Copying the excited state density for this state as the 1-particle RhoCI density.
 
 Excited State   2:      Singlet-A      3.8481 eV  322.20 nm  f=0.0481  <S**2>=0.000
      95 -> 97         0.68314
 
 Excited State   3:      Singlet-A      3.9033 eV  317.64 nm  f=0.0179  <S**2>=0.000
      93 -> 97        -0.28555
      94 -> 97         0.62667
 SavETr:  write IOETrn=   770 NScale= 10 NData=  16 NLR=1 NState=    3 LETran=      64.

 **********************************************************************

            Population analysis using the SCF density.

 **********************************************************************

 Orbital symmetries:
       Occupied  (A) (A) (A) (A) (A) (A) (A) (A) (A) (A) (A) (A)
                 (A) (A) (A) (A) (A) (A) (A) (A) (A) (A) (A) (A)
                 (A) (A) (A) (A) (A) (A) (A) (A) (A) (A) (A) (A)
                 (A) (A) (A) (A) (A) (A) (A) (A) (A) (A) (A) (A)
                 (A) (A) (A) (A) (A) (A) (A) (A) (A) (A) (A) (A)
                 (A) (A) (A) (A) (A) (A) (A) (A) (A) (A) (A) (A)
                 (A) (A) (A) (A) (A) (A) (A) (A) (A) (A) (A) (A)
                 (A) (A) (A) (A) (A) (A) (A) (A) (A) (A) (A) (A)
       Virtual   (A) (A) (A) (A) (A) (A) (A) (A) (A) (A) (A) (A)
                 (A) (A) (A) (A) (A) (A) (A) (A) (A) (A) (A) (A)
                 (A) (A) (A) (A) (A) (A) (A) (A) (A) (A) (A) (A)
                 (A) (A) (A) (A) (A) (A) (A) (A) (A) (A) (A) (A)
                 (A) (A) (A) (A) (A) (A) (A) (A) (A) (A) (A) (A)
                 (A) (A) (A) (A) (A) (A) (A) (A) (A) (A) (A) (A)
                 (A) (A) (A) (A) (A) (A) (A) (A) (A) (A) (A) (A)
                 (A) (A) (A) (A) (A) (A) (A) (A) (A) (A) (A) (A)
                 (A) (A) (A) (A) (A) (A) (A) (A) (A) (A) (A) (A)
                 (A) (A) (A) (A) (A) (A) (A) (A) (A) (A) (A) (A)
                 (A) (A) (A) (A) (A) (A) (A) (A) (A) (A) (A) (A)
                 (A) (A) (A) (A) (A) (A) (A) (A) (A) (A) (A) (A)
                 (A) (A) (A) (A) (A) (A) (A) (A) (A) (A) (A) (A)
                 (A) (A) (A) (A) (A) (A) (A) (A) (A) (A) (A) (A)
                 (A) (A) (A) (A) (A) (A) (A) (A) (A) (A) (A) (A)
                 (A) (A) (A) (A) (A) (A) (A) (A) (A) (A) (A) (A)
                 (A) (A) (A) (A) (A) (A) (A) (A) (A) (A) (A) (A)
                 (A) (A) (A) (A) (A) (A) (A) (A) (A) (A) (A) (A)
                 (A) (A) (A) (A) (A) (A) (A) (A) (A) (A) (A) (A)
                 (A) (A) (A) (A) (A) (A) (A) (A) (A) (A) (A) (A)
                 (A) (A) (A) (A) (A) (A) (A) (A) (A) (A) (A) (A)
                 (A) (A) (A) (A) (A) (A) (A) (A) (A) (A) (A) (A)
                 (A) (A) (A) (A) (A) (A) (A) (A) (A) (A) (A) (A)
                 (A) (A) (A) (A) (A) (A) (A) (A) (A) (A) (A) (A)
                 (A) (A) (A) (A) (A) (A) (A) (A) (A) (A) (A) (A)
                 (A) (A) (A) (A) (A) (A) (A) (A) (A) (A) (A) (A)
                 (A) (A) (A) (A) (A) (A) (A) (A) (A) (A) (A) (A)
                 (A) (A) (A) (A) (A) (A) (A) (A) (A) (A) (A) (A)
                 (A) (A) (A) (A) (A) (A) (A) (A) (A) (A) (A) (A)
                 (A) (A) (A) (A) (A) (A) (A) (A) (A) (A) (A) (A)
                 (A) (A) (A) (A) (A) (A) (A) (A) (A) (A) (A) (A)
                 (A) (A) (A) (A) (A) (A) (A) (A) (A) (A) (A) (A)
                 (A) (A) (A) (A) (A) (A) (A) (A) (A) (A) (A) (A)
                 (A) (A) (A) (A) (A) (A) (A) (A) (A) (A) (A) (A)
                 (A) (A) (A) (A) (A) (A) (A) (A) (A) (A) (A) (A)
                 (A) (A) (A) (A) (A) (A) (A) (A) (A) (A) (A) (A)
                 (A) (A) (A) (A) (A) (A) (A) (A) (A) (A) (A) (A)
                 (A) (A) (A) (A) (A) (A) (A) (A) (A) (A) (A) (A)
                 (A) (A) (A) (A) (A) (A) (A) (A) (A) (A) (A) (A)
                 (A) (A) (A) (A) (A) (A) (A) (A) (A) (A) (A) (A)
                 (A) (A) (A) (A) (A) (A) (A) (A) (A) (A) (A) (A)
                 (A) (A) (A) (A) (A) (A) (A) (A) (A) (A) (A) (A)
                 (A) (A) (A) (A) (A) (A) (A) (A) (A) (A) (A) (A)
                 (A) (A) (A) (A) (A) (A) (A) (A) (A) (A) (A) (A)
                 (A) (A) (A) (A) (A) (A) (A) (A) (A) (A) (A) (A)
                 (A) (A) (A) (A) (A) (A) (A) (A) (A) (A) (A) (A)
                 (A) (A) (A) (A) (A) (A) (A) (A) (A) (A) (A) (A)
                 (A) (A) (A) (A) (A) (A) (A) (A) (A) (A) (A) (A)
                 (A) (A) (A) (A) (A) (A) (A) (A) (A) (A) (A) (A)
                 (A) (A) (A) (A) (A) (A) (A) (A) (A) (A) (A) (A)
                 (A) (A) (A) (A) (A) (A) (A) (A) (A) (A) (A) (A)
                 (A) (A) (A) (A) (A) (A) (A) (A) (A)
 The electronic state is 1-A.
 Alpha  occ. eigenvalues --  -89.17422 -89.17338 -14.57862 -14.57361 -10.44421
 Alpha  occ. eigenvalues --  -10.44024 -10.39447 -10.39241 -10.38998 -10.38477
 Alpha  occ. eigenvalues --  -10.38150 -10.38081 -10.37166 -10.34878 -10.34522
 Alpha  occ. eigenvalues --  -10.34510 -10.34421 -10.34339 -10.34275 -10.33655
 Alpha  occ. eigenvalues --  -10.33448 -10.33365 -10.33220 -10.33196 -10.32401
 Alpha  occ. eigenvalues --   -8.15697  -8.15623  -6.09406  -6.09343  -6.09042
 Alpha  occ. eigenvalues --   -6.08982  -6.08610  -6.08517  -1.15475  -1.15203
 Alpha  occ. eigenvalues --   -1.00551  -1.00364  -0.98465  -0.97349  -0.94918
 Alpha  occ. eigenvalues --   -0.91661  -0.90574  -0.90118  -0.88431  -0.87568
 Alpha  occ. eigenvalues --   -0.86706  -0.83397  -0.79190  -0.78855  -0.78353
 Alpha  occ. eigenvalues --   -0.75818  -0.74365  -0.73377  -0.72396  -0.69719
 Alpha  occ. eigenvalues --   -0.69413  -0.65821  -0.65168  -0.64982  -0.62465
 Alpha  occ. eigenvalues --   -0.61772  -0.59781  -0.59654  -0.59483  -0.59131
 Alpha  occ. eigenvalues --   -0.58390  -0.58052  -0.57364  -0.56951  -0.56000
 Alpha  occ. eigenvalues --   -0.55478  -0.53976  -0.53339  -0.52630  -0.52259
 Alpha  occ. eigenvalues --   -0.51793  -0.51461  -0.50670  -0.50216  -0.49466
 Alpha  occ. eigenvalues --   -0.48791  -0.48687  -0.48488  -0.48191  -0.48017
 Alpha  occ. eigenvalues --   -0.47580  -0.46771  -0.46617  -0.44278  -0.43322
 Alpha  occ. eigenvalues --   -0.43079  -0.39403  -0.36416  -0.36240  -0.36097
 Alpha  occ. eigenvalues --   -0.30675
 Alpha virt. eigenvalues --   -0.19511  -0.12013  -0.11901  -0.11571  -0.11176
 Alpha virt. eigenvalues --   -0.10578  -0.10271  -0.08818  -0.06213  -0.05540
 Alpha virt. eigenvalues --   -0.04505  -0.04062  -0.03020  -0.02342  -0.01411
 Alpha virt. eigenvalues --   -0.01264  -0.00887  -0.00477  -0.00164   0.00456
 Alpha virt. eigenvalues --    0.01387   0.01618   0.01730   0.02167   0.02608
 Alpha virt. eigenvalues --    0.02911   0.03641   0.03993   0.04592   0.04868
 Alpha virt. eigenvalues --    0.04901   0.05167   0.05452   0.05827   0.06252
 Alpha virt. eigenvalues --    0.06571   0.07439   0.08037   0.09102   0.09683
 Alpha virt. eigenvalues --    0.09776   0.10393   0.10948   0.11341   0.12756
 Alpha virt. eigenvalues --    0.12924   0.13803   0.14852   0.15298   0.15788
 Alpha virt. eigenvalues --    0.17164   0.17535   0.18220   0.18537   0.18953
 Alpha virt. eigenvalues --    0.19218   0.19724   0.20007   0.20985   0.21325
 Alpha virt. eigenvalues --    0.21835   0.22091   0.22302   0.22919   0.23692
 Alpha virt. eigenvalues --    0.24264   0.24641   0.25249   0.25722   0.25889
 Alpha virt. eigenvalues --    0.26081   0.26493   0.27255   0.27685   0.28031
 Alpha virt. eigenvalues --    0.28390   0.29021   0.29428   0.29763   0.30046
 Alpha virt. eigenvalues --    0.30388   0.30593   0.31229   0.31657   0.32090
 Alpha virt. eigenvalues --    0.32316   0.32716   0.33695   0.33844   0.34444
 Alpha virt. eigenvalues --    0.34673   0.35236   0.35349   0.35457   0.35683
 Alpha virt. eigenvalues --    0.36007   0.36375   0.37436   0.38589   0.39320
 Alpha virt. eigenvalues --    0.40306   0.40575   0.41227   0.41449   0.41695
 Alpha virt. eigenvalues --    0.42052   0.42616   0.43708   0.44202   0.44535
 Alpha virt. eigenvalues --    0.45089   0.45454   0.45932   0.46002   0.46536
 Alpha virt. eigenvalues --    0.46694   0.46737   0.47462   0.47636   0.47715
 Alpha virt. eigenvalues --    0.48503   0.48708   0.49266   0.49692   0.49831
 Alpha virt. eigenvalues --    0.50157   0.50531   0.50725   0.50977   0.51800
 Alpha virt. eigenvalues --    0.51843   0.52151   0.52818   0.52929   0.53340
 Alpha virt. eigenvalues --    0.54183   0.54671   0.54876   0.55187   0.55754
 Alpha virt. eigenvalues --    0.56153   0.56581   0.57212   0.57815   0.58794
 Alpha virt. eigenvalues --    0.59030   0.59607   0.59987   0.60553   0.60642
 Alpha virt. eigenvalues --    0.60923   0.61428   0.61839   0.62073   0.62759
 Alpha virt. eigenvalues --    0.62982   0.63400   0.64305   0.64504   0.64834
 Alpha virt. eigenvalues --    0.65257   0.66206   0.66735   0.66982   0.67517
 Alpha virt. eigenvalues --    0.67827   0.68644   0.69284   0.69369   0.69689
 Alpha virt. eigenvalues --    0.69832   0.70297   0.70952   0.71062   0.71222
 Alpha virt. eigenvalues --    0.71769   0.73283   0.73580   0.74216   0.74808
 Alpha virt. eigenvalues --    0.75318   0.76101   0.76762   0.77642   0.78601
 Alpha virt. eigenvalues --    0.79014   0.79270   0.79500   0.81241   0.81930
 Alpha virt. eigenvalues --    0.82453   0.82942   0.83347   0.84367   0.84981
 Alpha virt. eigenvalues --    0.85436   0.86454   0.87848   0.88370   0.89420
 Alpha virt. eigenvalues --    0.89707   0.90943   0.91519   0.91714   0.92261
 Alpha virt. eigenvalues --    0.93314   0.93976   0.94428   0.95095   0.96154
 Alpha virt. eigenvalues --    0.96855   0.98080   0.98326   0.99567   0.99904
 Alpha virt. eigenvalues --    1.00856   1.01770   1.02215   1.02485   1.03259
 Alpha virt. eigenvalues --    1.04235   1.04449   1.04634   1.05368   1.05904
 Alpha virt. eigenvalues --    1.06515   1.06842   1.07178   1.07537   1.08611
 Alpha virt. eigenvalues --    1.08731   1.09661   1.10112   1.11253   1.11828
 Alpha virt. eigenvalues --    1.12267   1.12759   1.13252   1.14094   1.14712
 Alpha virt. eigenvalues --    1.15797   1.16584   1.17339   1.17621   1.18063
 Alpha virt. eigenvalues --    1.18180   1.18853   1.19301   1.19606   1.20124
 Alpha virt. eigenvalues --    1.20656   1.21333   1.22130   1.23038   1.23673
 Alpha virt. eigenvalues --    1.24706   1.25457   1.25843   1.26825   1.28291
 Alpha virt. eigenvalues --    1.28588   1.30565   1.31783   1.32174   1.32565
 Alpha virt. eigenvalues --    1.35467   1.36083   1.37088   1.37641   1.39168
 Alpha virt. eigenvalues --    1.40328   1.41352   1.42337   1.42828   1.43327
 Alpha virt. eigenvalues --    1.45574   1.45706   1.46341   1.47027   1.47554
 Alpha virt. eigenvalues --    1.48246   1.49000   1.49409   1.50844   1.51622
 Alpha virt. eigenvalues --    1.52276   1.52534   1.52821   1.53276   1.54731
 Alpha virt. eigenvalues --    1.56777   1.58180   1.58936   1.59999   1.61823
 Alpha virt. eigenvalues --    1.63131   1.63230   1.64485   1.64748   1.65005
 Alpha virt. eigenvalues --    1.65808   1.66132   1.67470   1.68889   1.70366
 Alpha virt. eigenvalues --    1.71198   1.72926   1.73889   1.74139   1.75021
 Alpha virt. eigenvalues --    1.75827   1.77061   1.77778   1.78445   1.78827
 Alpha virt. eigenvalues --    1.79904   1.81916   1.85993   1.87249   1.87384
 Alpha virt. eigenvalues --    1.87988   1.88591   1.92030   1.92841   1.93966
 Alpha virt. eigenvalues --    1.94916   1.95904   1.99598   2.00307   2.01630
 Alpha virt. eigenvalues --    2.02029   2.02902   2.04276   2.05248   2.05416
 Alpha virt. eigenvalues --    2.07302   2.08072   2.08965   2.10784   2.11050
 Alpha virt. eigenvalues --    2.11517   2.13039   2.14143   2.15196   2.15684
 Alpha virt. eigenvalues --    2.16166   2.16917   2.17444   2.17776   2.18544
 Alpha virt. eigenvalues --    2.18766   2.19501   2.22136   2.24166   2.26566
 Alpha virt. eigenvalues --    2.27141   2.28154   2.28671   2.29542   2.30474
 Alpha virt. eigenvalues --    2.33427   2.34193   2.34614   2.36248   2.37150
 Alpha virt. eigenvalues --    2.39511   2.40225   2.42171   2.42431   2.43268
 Alpha virt. eigenvalues --    2.43944   2.46241   2.47497   2.47582   2.47960
 Alpha virt. eigenvalues --    2.49247   2.50339   2.50949   2.51669   2.51914
 Alpha virt. eigenvalues --    2.52643   2.54485   2.54885   2.55325   2.55956
 Alpha virt. eigenvalues --    2.56423   2.57404   2.58270   2.58616   2.59150
 Alpha virt. eigenvalues --    2.59755   2.60348   2.61587   2.62716   2.63311
 Alpha virt. eigenvalues --    2.63430   2.65796   2.66722   2.68462   2.68663
 Alpha virt. eigenvalues --    2.69449   2.70507   2.71064   2.72327   2.72423
 Alpha virt. eigenvalues --    2.73193   2.73360   2.73917   2.76247   2.77908
 Alpha virt. eigenvalues --    2.79044   2.81122   2.82471   2.83172   2.86287
 Alpha virt. eigenvalues --    2.87139   2.87912   2.92787   2.93352   2.95325
 Alpha virt. eigenvalues --    2.97961   2.98966   2.99386   2.99969   3.01098
 Alpha virt. eigenvalues --    3.01643   3.01886   3.02056   3.02426   3.02951
 Alpha virt. eigenvalues --    3.05240   3.06118   3.07491   3.08392   3.09561
 Alpha virt. eigenvalues --    3.10767   3.11438   3.12208   3.13052   3.13358
 Alpha virt. eigenvalues --    3.14290   3.15355   3.15572   3.16570   3.16680
 Alpha virt. eigenvalues --    3.17216   3.17438   3.18580   3.19302   3.19465
 Alpha virt. eigenvalues --    3.19997   3.20584   3.20882   3.21267   3.21473
 Alpha virt. eigenvalues --    3.21999   3.23055   3.23915   3.24390   3.24900
 Alpha virt. eigenvalues --    3.27653   3.28058   3.28758   3.29323   3.29863
 Alpha virt. eigenvalues --    3.30610   3.30734   3.31574   3.32416   3.32916
 Alpha virt. eigenvalues --    3.33875   3.34312   3.34603   3.34944   3.35072
 Alpha virt. eigenvalues --    3.36295   3.37128   3.37459   3.38259   3.39104
 Alpha virt. eigenvalues --    3.39866   3.40912   3.40987   3.42226   3.43345
 Alpha virt. eigenvalues --    3.43691   3.43858   3.45064   3.45382   3.45818
 Alpha virt. eigenvalues --    3.46199   3.47288   3.48005   3.48271   3.48662
 Alpha virt. eigenvalues --    3.48842   3.49304   3.49724   3.50216   3.51007
 Alpha virt. eigenvalues --    3.51711   3.52504   3.52863   3.53872   3.54113
 Alpha virt. eigenvalues --    3.55547   3.56639   3.57557   3.57684   3.58119
 Alpha virt. eigenvalues --    3.59213   3.60096   3.60963   3.61875   3.63143
 Alpha virt. eigenvalues --    3.64571   3.65008   3.65503   3.66020   3.67654
 Alpha virt. eigenvalues --    3.67745   3.69136   3.70024   3.71514   3.73178
 Alpha virt. eigenvalues --    3.73676   3.76627   3.77791   3.78567   3.79969
 Alpha virt. eigenvalues --    3.80873   3.80893   3.81936   3.82563   3.83485
 Alpha virt. eigenvalues --    3.83708   3.86950   3.88891   3.90863   3.91651
 Alpha virt. eigenvalues --    3.92400   3.93557   3.94150   3.95026   3.97033
 Alpha virt. eigenvalues --    3.98842   4.02439   4.03726   4.08428   4.11806
 Alpha virt. eigenvalues --    4.12692   4.13493   4.14601   4.14777   4.16824
 Alpha virt. eigenvalues --    4.17626   4.27498   4.28154   4.34689   4.35600
 Alpha virt. eigenvalues --    4.36417   4.37282   4.38893   4.43756   4.51437
 Alpha virt. eigenvalues --    4.51677   4.53680   4.64498   4.64904   4.69019
 Alpha virt. eigenvalues --    4.69266   4.85326   4.93821   4.96437   5.02605
 Alpha virt. eigenvalues --    5.02871   5.10128   5.11230   5.15493   5.16895
 Alpha virt. eigenvalues --    5.21403   5.23068   5.35165   5.41911   5.50364
 Alpha virt. eigenvalues --    5.53695   5.74545   5.77976   8.10924   8.14017
 Alpha virt. eigenvalues --   17.20811  17.21203  17.66577  17.69323  17.72407
 Alpha virt. eigenvalues --   17.73992  23.55034  23.56537  23.83316  23.87104
 Alpha virt. eigenvalues --   23.93358  23.94342  23.96611  23.96735  23.97749
 Alpha virt. eigenvalues --   23.98990  23.99785  24.00902  24.01360  24.02725
 Alpha virt. eigenvalues --   24.07398  24.08088  24.08549  24.11211  24.12611
 Alpha virt. eigenvalues --   24.14413  24.15010  35.64690  35.65179 189.44446
 Alpha virt. eigenvalues --  189.47285
          Condensed to atoms (all electrons):
               1          2          3          4          5          6
     1  C    4.756360   0.509606  -0.027378  -0.022403  -0.026661   0.507386
     2  C    0.509606   4.924719   0.504705  -0.020529  -0.026793  -0.021237
     3  C   -0.027378   0.504705   4.764175   0.500008  -0.017388  -0.028991
     4  C   -0.022403  -0.020529   0.500008   4.746189   0.520808  -0.020201
     5  C   -0.026661  -0.026793  -0.017388   0.520808   4.869610   0.460806
     6  C    0.507386  -0.021237  -0.028991  -0.020201   0.460806   4.717867
     7  N    0.000484   0.001329  -0.000212   0.001702  -0.028773   0.360399
     8  C   -0.022372   0.002922  -0.000124  -0.000377   0.001129  -0.067928
     9  S    0.342132  -0.044799   0.000971   0.002357   0.000630  -0.103932
    10  C   -0.000000   0.000000  -0.000000   0.000000   0.000000  -0.000000
    11  S    0.000000   0.000000  -0.000000  -0.000000   0.000000   0.000000
    12  C    0.000000  -0.000000  -0.000000   0.000000  -0.000000  -0.000000
    13  C   -0.000000   0.000000  -0.000000  -0.000000   0.000000   0.000000
    14  N   -0.000000   0.000000  -0.000000  -0.000000  -0.000000   0.000000
    15  C    0.003645   0.000076  -0.000064   0.000176   0.004268  -0.074960
    16  C   -0.000298   0.000002   0.000000  -0.000100  -0.001926   0.001164
    17  C    0.000000   0.000000   0.000000   0.000000  -0.000000   0.000000
    18  C    0.000002  -0.000000  -0.000000   0.000000  -0.000000  -0.000000
    19  C    0.000000   0.000000  -0.000000   0.000000   0.000000  -0.000000
    20  C   -0.000000   0.000000   0.000000  -0.000000   0.000000   0.000000
    21  C    0.000000  -0.000000  -0.000000   0.000000  -0.000000  -0.000000
    22  C   -0.000000   0.000000  -0.000000   0.000000  -0.000000  -0.000000
    23  C   -0.002964   0.000184  -0.000003  -0.000001  -0.000038  -0.000701
    24  C    0.000013  -0.000005   0.000000  -0.000000   0.000005   0.000177
    25  C   -0.000032   0.000000  -0.000000  -0.000000  -0.000000   0.000007
    26  H   -0.043855   0.419701  -0.034671   0.004323  -0.000115   0.006484
    27  H    0.005004  -0.042984   0.420068  -0.037317   0.005565  -0.000270
    28  H    0.000068   0.005094  -0.038365   0.419137  -0.041876   0.005703
    29  H    0.003733  -0.000375   0.005665  -0.027350   0.424294  -0.061465
    30  H   -0.000071   0.000002   0.000003  -0.000020  -0.000204   0.004725
    31  H   -0.000279  -0.000035  -0.000030   0.000409   0.005615  -0.009857
    32  H    0.000015   0.000000   0.000000   0.000001  -0.000063  -0.000252
    33  H   -0.000053  -0.000034   0.000002   0.000032   0.002375   0.002243
    34  H   -0.000085   0.000002  -0.000001   0.000012   0.000139   0.000187
    35  H   -0.000000  -0.000000   0.000000   0.000000   0.000000  -0.000000
    36  H    0.000005  -0.000000   0.000000   0.000000  -0.000000  -0.000000
    37  H    0.000001  -0.000000  -0.000000  -0.000000  -0.000000  -0.000000
    38  H    0.000006  -0.000000  -0.000000   0.000000   0.000000  -0.000001
    39  H    0.000000   0.000000  -0.000000   0.000000  -0.000000  -0.000000
    40  H   -0.000000   0.000000   0.000000  -0.000000   0.000000   0.000000
    41  H    0.000000   0.000000  -0.000000  -0.000000   0.000000   0.000000
    42  H    0.000000   0.000000  -0.000000   0.000000  -0.000000  -0.000000
    43  H   -0.000000  -0.000000  -0.000000  -0.000000   0.000000   0.000000
    44  H   -0.000010   0.000010  -0.000001   0.000001  -0.000039  -0.001039
    45  H   -0.000470  -0.000011   0.000000  -0.000000   0.000001   0.000037
    46  H    0.000001   0.000000   0.000000  -0.000000   0.000000  -0.000000
               7          8          9         10         11         12
     1  C    0.000484  -0.022372   0.342132  -0.000000   0.000000   0.000000
     2  C    0.001329   0.002922  -0.044799   0.000000   0.000000  -0.000000
     3  C   -0.000212  -0.000124   0.000971  -0.000000  -0.000000  -0.000000
     4  C    0.001702  -0.000377   0.002357   0.000000  -0.000000   0.000000
     5  C   -0.028773   0.001129   0.000630   0.000000   0.000000  -0.000000
     6  C    0.360399  -0.067928  -0.103932  -0.000000   0.000000  -0.000000
     7  N    6.390021   0.458615   0.024178   0.000002  -0.000000   0.000000
     8  C    0.458615   4.661165   0.300613  -0.000522   0.000028  -0.000000
     9  S    0.024178   0.300613  15.339551  -0.000083   0.000001  -0.000000
    10  C    0.000002  -0.000522  -0.000083   4.695744   0.296109  -0.021673
    11  S   -0.000000   0.000028   0.000001   0.296109  15.287257   0.353923
    12  C    0.000000  -0.000000  -0.000000  -0.021673   0.353923   4.761041
    13  C    0.000000  -0.000000   0.000003  -0.068259  -0.095841   0.511403
    14  N   -0.000000   0.000001   0.000005   0.465941   0.018724   0.002973
    15  C    0.330530  -0.073382   0.008372   0.000000  -0.000000   0.000000
    16  C   -0.043967   0.000670  -0.000602  -0.000000   0.000000  -0.000000
    17  C   -0.000000   0.000006   0.000145  -0.063859   0.007181   0.002451
    18  C   -0.000000  -0.000021   0.000465  -0.000614  -0.000506  -0.000365
    19  C   -0.000000   0.000000  -0.000000   0.002917  -0.039871   0.505551
    20  C    0.000000  -0.000000   0.000000  -0.000171   0.000673  -0.026338
    21  C   -0.000000  -0.000000  -0.000000  -0.000463   0.002547  -0.022158
    22  C    0.000000  -0.000000   0.000000   0.000542   0.000990  -0.020771
    23  C   -0.011952   0.429196  -0.046485  -0.004974  -0.000104  -0.000005
    24  C   -0.001103   0.006778  -0.003407  -0.011635   0.002350  -0.000175
    25  C   -0.000016  -0.010751   0.003580   0.410961  -0.027262  -0.008478
    26  H   -0.000206  -0.000023  -0.005086  -0.000000   0.000000  -0.000000
    27  H    0.000017   0.000009  -0.000219   0.000000   0.000000  -0.000000
    28  H   -0.000059   0.000016   0.000100   0.000000  -0.000000   0.000000
    29  H   -0.004450  -0.000379  -0.000635  -0.000000   0.000000  -0.000000
    30  H   -0.023179  -0.009765  -0.000229  -0.000002   0.000000  -0.000000
    31  H   -0.022220   0.004916  -0.000450  -0.000000   0.000000  -0.000000
    32  H    0.003973  -0.000303   0.000033   0.000000  -0.000000   0.000000
    33  H   -0.001444  -0.000013  -0.000040   0.000000   0.000000   0.000000
    34  H   -0.001880   0.002460  -0.000514  -0.000002   0.000001  -0.000000
    35  H    0.000000   0.000001  -0.000001   0.003966  -0.000332  -0.000238
    36  H    0.000001  -0.000040   0.000147  -0.006877   0.000172   0.000190
    37  H   -0.000000   0.000002   0.000412  -0.000324   0.000041   0.000019
    38  H    0.000000   0.000027  -0.000454   0.002980  -0.000298  -0.000094
    39  H    0.000000   0.000000  -0.000023   0.000033  -0.000007  -0.000001
    40  H    0.000000   0.000000   0.000000  -0.000018  -0.005138  -0.043491
    41  H   -0.000000   0.000000   0.000000   0.000010  -0.000217   0.005013
    42  H   -0.000000   0.000000  -0.000000   0.000015   0.000094   0.000050
    43  H    0.000000   0.000000  -0.000000  -0.000384  -0.000628   0.003510
    44  H   -0.001925  -0.057871   0.005480   0.000782  -0.000018   0.000001
    45  H    0.000235  -0.005825   0.006949  -0.000512  -0.000444  -0.000027
    46  H   -0.000003   0.000368  -0.000022  -0.047854  -0.007674  -0.000319
              13         14         15         16         17         18
     1  C   -0.000000  -0.000000   0.003645  -0.000298   0.000000   0.000002
     2  C    0.000000   0.000000   0.000076   0.000002   0.000000  -0.000000
     3  C   -0.000000  -0.000000  -0.000064   0.000000   0.000000  -0.000000
     4  C   -0.000000  -0.000000   0.000176  -0.000100   0.000000   0.000000
     5  C    0.000000  -0.000000   0.004268  -0.001926  -0.000000  -0.000000
     6  C    0.000000   0.000000  -0.074960   0.001164   0.000000  -0.000000
     7  N    0.000000  -0.000000   0.330530  -0.043967  -0.000000  -0.000000
     8  C   -0.000000   0.000001  -0.073382   0.000670   0.000006  -0.000021
     9  S    0.000003   0.000005   0.008372  -0.000602   0.000145   0.000465
    10  C   -0.068259   0.465941   0.000000  -0.000000  -0.063859  -0.000614
    11  S   -0.095841   0.018724  -0.000000   0.000000   0.007181  -0.000506
    12  C    0.511403   0.002973   0.000000  -0.000000   0.002451  -0.000365
    13  C    4.710033   0.362147   0.000000  -0.000000  -0.076284   0.000789
    14  N    0.362147   6.376516  -0.000000   0.000000   0.325836  -0.045438
    15  C    0.000000  -0.000000   4.849437   0.374536   0.000000  -0.000000
    16  C   -0.000000   0.000000   0.374536   4.809961  -0.000000   0.000000
    17  C   -0.076284   0.325836   0.000000  -0.000000   4.883343   0.377532
    18  C    0.000789  -0.045438  -0.000000   0.000000   0.377532   4.814068
    19  C   -0.025612   0.002170   0.000000  -0.000000   0.000096  -0.000001
    20  C   -0.030383  -0.000326   0.000000   0.000000  -0.000065  -0.000001
    21  C   -0.020989   0.001868  -0.000000   0.000000  -0.000107  -0.000078
    22  C    0.454615  -0.031545   0.000000  -0.000000   0.003994  -0.003218
    23  C    0.000004   0.000294   0.004210  -0.002396  -0.000149   0.000176
    24  C    0.000742  -0.007428  -0.000473  -0.000058  -0.007039  -0.003777
    25  C    0.001059  -0.016528  -0.000024  -0.000008   0.005980   0.000678
    26  H    0.000000   0.000000   0.000012  -0.000000   0.000000  -0.000000
    27  H    0.000000   0.000000  -0.000001   0.000000  -0.000000  -0.000000
    28  H    0.000000   0.000000  -0.000006  -0.000004  -0.000000   0.000000
    29  H    0.000000   0.000000   0.001115  -0.000131  -0.000000  -0.000000
    30  H    0.000000   0.000000   0.401688  -0.035036  -0.000000  -0.000000
    31  H   -0.000000   0.000000   0.400084  -0.031996   0.000000  -0.000000
    32  H    0.000000  -0.000000  -0.026128   0.400926   0.000000  -0.000000
    33  H   -0.000000  -0.000000  -0.029688   0.406633   0.000000   0.000000
    34  H   -0.000000   0.000000  -0.031326   0.406707   0.000000  -0.000000
    35  H   -0.007995  -0.022592  -0.000000  -0.000000   0.397338  -0.032800
    36  H    0.003784  -0.024966  -0.000000   0.000000   0.405667  -0.034796
    37  H   -0.000267   0.004074  -0.000000  -0.000000  -0.027503   0.400858
    38  H    0.000262   0.000057   0.000000  -0.000000  -0.032455   0.406740
    39  H    0.001862  -0.001608   0.000000   0.000000  -0.026797   0.405891
    40  H    0.006599  -0.000204   0.000000   0.000000   0.000012  -0.000000
    41  H   -0.000234   0.000018  -0.000000  -0.000000  -0.000001   0.000000
    42  H    0.005725  -0.000060   0.000000  -0.000000  -0.000006  -0.000004
    43  H   -0.062176  -0.004598   0.000000  -0.000000   0.001223  -0.000568
    44  H   -0.000001  -0.000004   0.003401  -0.000707  -0.000006  -0.000006
    45  H    0.000190  -0.000454  -0.000000  -0.000010  -0.005826  -0.000966
    46  H    0.000407   0.002578  -0.000007  -0.000012  -0.000316  -0.000033
              19         20         21         22         23         24
     1  C    0.000000  -0.000000   0.000000  -0.000000  -0.002964   0.000013
     2  C    0.000000   0.000000  -0.000000   0.000000   0.000184  -0.000005
     3  C   -0.000000   0.000000  -0.000000  -0.000000  -0.000003   0.000000
     4  C    0.000000  -0.000000   0.000000   0.000000  -0.000001  -0.000000
     5  C    0.000000   0.000000  -0.000000  -0.000000  -0.000038   0.000005
     6  C   -0.000000   0.000000  -0.000000  -0.000000  -0.000701   0.000177
     7  N   -0.000000   0.000000  -0.000000   0.000000  -0.011952  -0.001103
     8  C    0.000000  -0.000000  -0.000000  -0.000000   0.429196   0.006778
     9  S   -0.000000   0.000000  -0.000000   0.000000  -0.046485  -0.003407
    10  C    0.002917  -0.000171  -0.000463   0.000542  -0.004974  -0.011635
    11  S   -0.039871   0.000673   0.002547   0.000990  -0.000104   0.002350
    12  C    0.505551  -0.026338  -0.022158  -0.020771  -0.000005  -0.000175
    13  C   -0.025612  -0.030383  -0.020989   0.454615   0.000004   0.000742
    14  N    0.002170  -0.000326   0.001868  -0.031545   0.000294  -0.007428
    15  C    0.000000   0.000000  -0.000000   0.000000   0.004210  -0.000473
    16  C   -0.000000   0.000000   0.000000  -0.000000  -0.002396  -0.000058
    17  C    0.000096  -0.000065  -0.000107   0.003994  -0.000149  -0.007039
    18  C   -0.000001  -0.000001  -0.000078  -0.003218   0.000176  -0.003777
    19  C    4.925035   0.503633  -0.019067  -0.028500   0.000000   0.000001
    20  C    0.503633   4.764540   0.496384  -0.015215   0.000000   0.000000
    21  C   -0.019067   0.496384   4.746643   0.522556  -0.000000  -0.000000
    22  C   -0.028500  -0.015215   0.522556   4.877866   0.000000   0.000012
    23  C    0.000000   0.000000  -0.000000   0.000000   5.057862   0.473306
    24  C    0.000001   0.000000  -0.000000   0.000012   0.473306   4.829201
    25  C    0.000240  -0.000001  -0.000018  -0.000077  -0.000580   0.419678
    26  H   -0.000000   0.000000  -0.000000  -0.000000  -0.000013   0.000002
    27  H   -0.000000   0.000000  -0.000000   0.000000   0.000000  -0.000000
    28  H    0.000000   0.000000  -0.000000  -0.000000   0.000000  -0.000000
    29  H   -0.000000   0.000000  -0.000000  -0.000000  -0.000010   0.000001
    30  H   -0.000000   0.000000   0.000000   0.000000   0.005030   0.000771
    31  H   -0.000000   0.000000   0.000000   0.000000  -0.000269  -0.000004
    32  H    0.000000  -0.000000  -0.000000   0.000000  -0.000033  -0.000001
    33  H    0.000000   0.000000   0.000000  -0.000000   0.000175   0.000014
    34  H   -0.000000   0.000000   0.000000  -0.000000   0.002700   0.000123
    35  H   -0.000070  -0.000038   0.000256   0.006207  -0.000022   0.000488
    36  H    0.000008   0.000001  -0.000007  -0.000166   0.000372   0.005324
    37  H   -0.000000   0.000000   0.000001  -0.000013  -0.000009   0.000152
    38  H    0.000002  -0.000001   0.000009   0.000113   0.000344   0.000667
    39  H   -0.000025  -0.000003   0.000121   0.002335  -0.000002   0.000058
    40  H    0.419160  -0.034629   0.004286  -0.000196  -0.000000   0.000001
    41  H   -0.042842   0.420421  -0.037581   0.005564  -0.000000   0.000000
    42  H    0.005056  -0.038080   0.419077  -0.042014   0.000000  -0.000000
    43  H   -0.000341   0.005602  -0.026040   0.424177  -0.000000   0.000005
    44  H    0.000000  -0.000000   0.000000   0.000000   0.413349  -0.037248
    45  H   -0.000001   0.000000  -0.000000   0.000014  -0.045328   0.388260
    46  H   -0.000047   0.000002  -0.000001   0.000025  -0.001185  -0.050051
              25         26         27         28         29         30
     1  C   -0.000032  -0.043855   0.005004   0.000068   0.003733  -0.000071
     2  C    0.000000   0.419701  -0.042984   0.005094  -0.000375   0.000002
     3  C   -0.000000  -0.034671   0.420068  -0.038365   0.005665   0.000003
     4  C   -0.000000   0.004323  -0.037317   0.419137  -0.027350  -0.000020
     5  C   -0.000000  -0.000115   0.005565  -0.041876   0.424294  -0.000204
     6  C    0.000007   0.006484  -0.000270   0.005703  -0.061465   0.004725
     7  N   -0.000016  -0.000206   0.000017  -0.000059  -0.004450  -0.023179
     8  C   -0.010751  -0.000023   0.000009   0.000016  -0.000379  -0.009765
     9  S    0.003580  -0.005086  -0.000219   0.000100  -0.000635  -0.000229
    10  C    0.410961  -0.000000   0.000000   0.000000  -0.000000  -0.000002
    11  S   -0.027262   0.000000   0.000000  -0.000000   0.000000   0.000000
    12  C   -0.008478  -0.000000  -0.000000   0.000000  -0.000000  -0.000000
    13  C    0.001059   0.000000   0.000000   0.000000   0.000000   0.000000
    14  N   -0.016528   0.000000   0.000000   0.000000   0.000000   0.000000
    15  C   -0.000024   0.000012  -0.000001  -0.000006   0.001115   0.401688
    16  C   -0.000008  -0.000000   0.000000  -0.000004  -0.000131  -0.035036
    17  C    0.005980   0.000000  -0.000000  -0.000000  -0.000000  -0.000000
    18  C    0.000678  -0.000000  -0.000000   0.000000  -0.000000  -0.000000
    19  C    0.000240  -0.000000  -0.000000   0.000000  -0.000000  -0.000000
    20  C   -0.000001   0.000000   0.000000   0.000000   0.000000   0.000000
    21  C   -0.000018  -0.000000  -0.000000  -0.000000  -0.000000   0.000000
    22  C   -0.000077  -0.000000   0.000000  -0.000000  -0.000000   0.000000
    23  C   -0.000580  -0.000013   0.000000   0.000000  -0.000010   0.005030
    24  C    0.419678   0.000002  -0.000000  -0.000000   0.000001   0.000771
    25  C    5.097222   0.000000   0.000000  -0.000000   0.000000  -0.000127
    26  H    0.000000   0.560017  -0.006906  -0.000259   0.000062  -0.000001
    27  H    0.000000  -0.006906   0.562963  -0.006927  -0.000224  -0.000000
    28  H   -0.000000  -0.000259  -0.006927   0.564922  -0.007757  -0.000001
    29  H    0.000000   0.000062  -0.000224  -0.007757   0.570150   0.000105
    30  H   -0.000127  -0.000001  -0.000000  -0.000001   0.000105   0.551697
    31  H   -0.000000   0.000002  -0.000000   0.000006   0.000958  -0.024263
    32  H    0.000002   0.000000  -0.000000  -0.000000   0.000124  -0.001919
    33  H   -0.000001  -0.000000   0.000000  -0.000007   0.001167   0.005991
    34  H   -0.000059   0.000000  -0.000000   0.000000  -0.000086  -0.007080
    35  H   -0.000385  -0.000000  -0.000000  -0.000000  -0.000000   0.000000
    36  H    0.004050  -0.000000  -0.000000   0.000000  -0.000000   0.000001
    37  H    0.000036   0.000000   0.000000   0.000000   0.000000   0.000000
    38  H   -0.001439  -0.000000  -0.000000   0.000000  -0.000000   0.000000
    39  H    0.000036   0.000000  -0.000000  -0.000000  -0.000000  -0.000000
    40  H    0.000016   0.000000   0.000000  -0.000000   0.000000  -0.000000
    41  H    0.000000   0.000000   0.000000  -0.000000   0.000000   0.000000
    42  H    0.000000  -0.000000  -0.000000   0.000000  -0.000000  -0.000000
    43  H   -0.000004  -0.000000   0.000000   0.000000   0.000000   0.000000
    44  H    0.000998   0.000000   0.000000  -0.000000  -0.000010   0.000725
    45  H   -0.048441   0.000006   0.000000  -0.000000   0.000000  -0.000007
    46  H    0.421915  -0.000000   0.000000  -0.000000   0.000000  -0.000014
              31         32         33         34         35         36
     1  C   -0.000279   0.000015  -0.000053  -0.000085  -0.000000   0.000005
     2  C   -0.000035   0.000000  -0.000034   0.000002  -0.000000  -0.000000
     3  C   -0.000030   0.000000   0.000002  -0.000001   0.000000   0.000000
     4  C    0.000409   0.000001   0.000032   0.000012   0.000000   0.000000
     5  C    0.005615  -0.000063   0.002375   0.000139   0.000000  -0.000000
     6  C   -0.009857  -0.000252   0.002243   0.000187  -0.000000  -0.000000
     7  N   -0.022220   0.003973  -0.001444  -0.001880   0.000000   0.000001
     8  C    0.004916  -0.000303  -0.000013   0.002460   0.000001  -0.000040
     9  S   -0.000450   0.000033  -0.000040  -0.000514  -0.000001   0.000147
    10  C   -0.000000   0.000000   0.000000  -0.000002   0.003966  -0.006877
    11  S    0.000000  -0.000000   0.000000   0.000001  -0.000332   0.000172
    12  C   -0.000000   0.000000   0.000000  -0.000000  -0.000238   0.000190
    13  C   -0.000000   0.000000  -0.000000  -0.000000  -0.007995   0.003784
    14  N    0.000000  -0.000000  -0.000000   0.000000  -0.022592  -0.024966
    15  C    0.400084  -0.026128  -0.029688  -0.031326  -0.000000  -0.000000
    16  C   -0.031996   0.400926   0.406633   0.406707  -0.000000   0.000000
    17  C    0.000000   0.000000   0.000000   0.000000   0.397338   0.405667
    18  C   -0.000000  -0.000000   0.000000  -0.000000  -0.032800  -0.034796
    19  C   -0.000000   0.000000   0.000000  -0.000000  -0.000070   0.000008
    20  C    0.000000  -0.000000   0.000000   0.000000  -0.000038   0.000001
    21  C    0.000000  -0.000000   0.000000   0.000000   0.000256  -0.000007
    22  C    0.000000   0.000000  -0.000000  -0.000000   0.006207  -0.000166
    23  C   -0.000269  -0.000033   0.000175   0.002700  -0.000022   0.000372
    24  C   -0.000004  -0.000001   0.000014   0.000123   0.000488   0.005324
    25  C   -0.000000   0.000002  -0.000001  -0.000059  -0.000385   0.004050
    26  H    0.000002   0.000000  -0.000000   0.000000  -0.000000  -0.000000
    27  H   -0.000000  -0.000000   0.000000  -0.000000  -0.000000  -0.000000
    28  H    0.000006  -0.000000  -0.000007   0.000000  -0.000000   0.000000
    29  H    0.000958   0.000124   0.001167  -0.000086  -0.000000  -0.000000
    30  H   -0.024263  -0.001919   0.005991  -0.007080   0.000000   0.000001
    31  H    0.544551  -0.002264  -0.006504   0.006011   0.000000   0.000000
    32  H   -0.002264   0.535413  -0.022793  -0.023557   0.000000   0.000000
    33  H   -0.006504  -0.022793   0.533627  -0.025136  -0.000000  -0.000000
    34  H    0.006011  -0.023557  -0.025136   0.542558  -0.000000  -0.000000
    35  H    0.000000   0.000000  -0.000000  -0.000000   0.539269  -0.020808
    36  H    0.000000   0.000000  -0.000000  -0.000000  -0.020808   0.539897
    37  H    0.000000   0.000000  -0.000000  -0.000000  -0.001790  -0.002429
    38  H    0.000000   0.000000  -0.000000  -0.000000   0.005974  -0.006065
    39  H    0.000000  -0.000000  -0.000000   0.000000  -0.006853   0.005757
    40  H   -0.000000   0.000000  -0.000000   0.000000   0.000001  -0.000001
    41  H    0.000000   0.000000  -0.000000  -0.000000   0.000000   0.000000
    42  H   -0.000000  -0.000000   0.000000   0.000000   0.000002  -0.000001
    43  H    0.000000   0.000000  -0.000000  -0.000000   0.000619   0.000127
    44  H    0.000097   0.000114  -0.000099   0.001590   0.000002  -0.000053
    45  H    0.000003  -0.000000   0.000001   0.000006   0.000669  -0.004844
    46  H    0.000001   0.000001  -0.000000  -0.000009   0.000033  -0.000039
              37         38         39         40         41         42
     1  C    0.000001   0.000006   0.000000  -0.000000   0.000000   0.000000
     2  C   -0.000000  -0.000000   0.000000   0.000000   0.000000   0.000000
     3  C   -0.000000  -0.000000  -0.000000   0.000000  -0.000000  -0.000000
     4  C   -0.000000   0.000000   0.000000  -0.000000  -0.000000   0.000000
     5  C   -0.000000   0.000000  -0.000000   0.000000   0.000000  -0.000000
     6  C   -0.000000  -0.000001  -0.000000   0.000000   0.000000  -0.000000
     7  N   -0.000000   0.000000   0.000000   0.000000  -0.000000  -0.000000
     8  C    0.000002   0.000027   0.000000   0.000000   0.000000   0.000000
     9  S    0.000412  -0.000454  -0.000023   0.000000   0.000000  -0.000000
    10  C   -0.000324   0.002980   0.000033  -0.000018   0.000010   0.000015
    11  S    0.000041  -0.000298  -0.000007  -0.005138  -0.000217   0.000094
    12  C    0.000019  -0.000094  -0.000001  -0.043491   0.005013   0.000050
    13  C   -0.000267   0.000262   0.001862   0.006599  -0.000234   0.005725
    14  N    0.004074   0.000057  -0.001608  -0.000204   0.000018  -0.000060
    15  C   -0.000000   0.000000   0.000000   0.000000  -0.000000   0.000000
    16  C   -0.000000  -0.000000   0.000000   0.000000  -0.000000  -0.000000
    17  C   -0.027503  -0.032455  -0.026797   0.000012  -0.000001  -0.000006
    18  C    0.400858   0.406740   0.405891  -0.000000   0.000000  -0.000004
    19  C   -0.000000   0.000002  -0.000025   0.419160  -0.042842   0.005056
    20  C    0.000000  -0.000001  -0.000003  -0.034629   0.420421  -0.038080
    21  C    0.000001   0.000009   0.000121   0.004286  -0.037581   0.419077
    22  C   -0.000013   0.000113   0.002335  -0.000196   0.005564  -0.042014
    23  C   -0.000009   0.000344  -0.000002  -0.000000  -0.000000   0.000000
    24  C    0.000152   0.000667   0.000058   0.000001   0.000000  -0.000000
    25  C    0.000036  -0.001439   0.000036   0.000016   0.000000   0.000000
    26  H    0.000000  -0.000000   0.000000   0.000000   0.000000  -0.000000
    27  H    0.000000  -0.000000  -0.000000   0.000000   0.000000  -0.000000
    28  H    0.000000   0.000000  -0.000000  -0.000000  -0.000000   0.000000
    29  H    0.000000  -0.000000  -0.000000   0.000000   0.000000  -0.000000
    30  H    0.000000   0.000000  -0.000000  -0.000000   0.000000  -0.000000
    31  H    0.000000   0.000000   0.000000  -0.000000   0.000000  -0.000000
    32  H    0.000000   0.000000  -0.000000   0.000000   0.000000  -0.000000
    33  H   -0.000000  -0.000000  -0.000000  -0.000000  -0.000000   0.000000
    34  H   -0.000000  -0.000000   0.000000   0.000000  -0.000000   0.000000
    35  H   -0.001790   0.005974  -0.006853   0.000001   0.000000   0.000002
    36  H   -0.002429  -0.006065   0.005757  -0.000001   0.000000  -0.000001
    37  H    0.537389  -0.024211  -0.022439   0.000000  -0.000000  -0.000000
    38  H   -0.024211   0.541643  -0.023834   0.000000  -0.000000   0.000000
    39  H   -0.022439  -0.023834   0.528066  -0.000000   0.000000  -0.000008
    40  H    0.000000   0.000000  -0.000000   0.554802  -0.006830  -0.000254
    41  H   -0.000000  -0.000000   0.000000  -0.006830   0.561083  -0.006887
    42  H   -0.000000   0.000000  -0.000008  -0.000254  -0.006887   0.564485
    43  H    0.000236  -0.000127   0.001702   0.000063  -0.000229  -0.007756
    44  H    0.000001  -0.000004   0.000000  -0.000000  -0.000000   0.000000
    45  H   -0.000184   0.003592  -0.000171   0.000000  -0.000000   0.000000
    46  H   -0.000001  -0.000028   0.000003  -0.000002  -0.000000   0.000000
              43         44         45         46
     1  C   -0.000000  -0.000010  -0.000470   0.000001
     2  C   -0.000000   0.000010  -0.000011   0.000000
     3  C   -0.000000  -0.000001   0.000000   0.000000
     4  C   -0.000000   0.000001  -0.000000  -0.000000
     5  C    0.000000  -0.000039   0.000001   0.000000
     6  C    0.000000  -0.001039   0.000037  -0.000000
     7  N    0.000000  -0.001925   0.000235  -0.000003
     8  C    0.000000  -0.057871  -0.005825   0.000368
     9  S   -0.000000   0.005480   0.006949  -0.000022
    10  C   -0.000384   0.000782  -0.000512  -0.047854
    11  S   -0.000628  -0.000018  -0.000444  -0.007674
    12  C    0.003510   0.000001  -0.000027  -0.000319
    13  C   -0.062176  -0.000001   0.000190   0.000407
    14  N   -0.004598  -0.000004  -0.000454   0.002578
    15  C    0.000000   0.003401  -0.000000  -0.000007
    16  C   -0.000000  -0.000707  -0.000010  -0.000012
    17  C    0.001223  -0.000006  -0.005826  -0.000316
    18  C   -0.000568  -0.000006  -0.000966  -0.000033
    19  C   -0.000341   0.000000  -0.000001  -0.000047
    20  C    0.005602  -0.000000   0.000000   0.000002
    21  C   -0.026040   0.000000  -0.000000  -0.000001
    22  C    0.424177   0.000000   0.000014   0.000025
    23  C   -0.000000   0.413349  -0.045328  -0.001185
    24  C    0.000005  -0.037248   0.388260  -0.050051
    25  C   -0.000004   0.000998  -0.048441   0.421915
    26  H   -0.000000   0.000000   0.000006  -0.000000
    27  H    0.000000   0.000000   0.000000   0.000000
    28  H    0.000000  -0.000000  -0.000000  -0.000000
    29  H    0.000000  -0.000010   0.000000   0.000000
    30  H    0.000000   0.000725  -0.000007  -0.000014
    31  H    0.000000   0.000097   0.000003   0.000001
    32  H    0.000000   0.000114  -0.000000   0.000001
    33  H   -0.000000  -0.000099   0.000001  -0.000000
    34  H   -0.000000   0.001590   0.000006  -0.000009
    35  H    0.000619   0.000002   0.000669   0.000033
    36  H    0.000127  -0.000053  -0.004844  -0.000039
    37  H    0.000236   0.000001  -0.000184  -0.000001
    38  H   -0.000127  -0.000004   0.003592  -0.000028
    39  H    0.001702   0.000000  -0.000171   0.000003
    40  H    0.000063  -0.000000   0.000000  -0.000002
    41  H   -0.000229  -0.000000  -0.000000  -0.000000
    42  H   -0.007756   0.000000   0.000000   0.000000
    43  H    0.569600   0.000000   0.000004   0.000001
    44  H    0.000000   0.570705   0.006574   0.006076
    45  H    0.000004   0.006574   0.596842   0.007001
    46  H    0.000001   0.006076   0.007001   0.573136
 Mulliken charges:
               1
     1  C    0.018470
     2  C   -0.211549
     3  C   -0.048369
     4  C   -0.066853
     5  C   -0.151369
     6  C    0.323651
     7  N   -0.430099
     8  C    0.380775
     9  S    0.170860
    10  C    0.348221
    11  S    0.208248
    12  C   -0.001990
    13  C    0.328417
    14  N   -0.407448
    15  C   -0.145493
    16  C   -0.283348
    17  C   -0.170387
    18  C   -0.284008
    19  C   -0.207491
    20  C   -0.046004
    21  C   -0.067236
    22  C   -0.157298
    23  C   -0.269979
    24  C   -0.005725
    25  C   -0.252223
    26  H    0.100527
    27  H    0.101221
    28  H    0.100215
    29  H    0.095500
    30  H    0.131180
    31  H    0.135517
    32  H    0.136711
    33  H    0.133554
    34  H    0.127240
    35  H    0.139100
    36  H    0.135590
    37  H    0.135947
    38  H    0.126595
    39  H    0.135905
    40  H    0.105825
    41  H    0.102710
    42  H    0.100565
    43  H    0.095981
    44  H    0.089135
    45  H    0.103138
    46  H    0.096069
 Sum of Mulliken charges =   1.00000
 Mulliken charges with hydrogens summed into heavy atoms:
               1
     1  C    0.018470
     2  C   -0.111022
     3  C    0.052852
     4  C    0.033362
     5  C   -0.055869
     6  C    0.323651
     7  N   -0.430099
     8  C    0.380775
     9  S    0.170860
    10  C    0.348221
    11  S    0.208248
    12  C   -0.001990
    13  C    0.328417
    14  N   -0.407448
    15  C    0.121204
    16  C    0.114157
    17  C    0.104303
    18  C    0.114440
    19  C   -0.101667
    20  C    0.056706
    21  C    0.033329
    22  C   -0.061316
    23  C   -0.180844
    24  C    0.097413
    25  C   -0.156154
 Electronic spatial extent (au):  <R**2>=          15691.3075
 Charge=              1.0000 electrons
 Dipole moment (field-independent basis, Debye):
    X=              0.5165    Y=              0.0749    Z=              0.4497  Tot=              0.6889
 Quadrupole moment (field-independent basis, Debye-Ang):
   XX=            -32.0373   YY=           -123.8008   ZZ=           -164.7232
   XY=              9.7188   XZ=             -0.8884   YZ=             -3.8825
 Traceless Quadrupole moment (field-independent basis, Debye-Ang):
   XX=             74.8165   YY=            -16.9470   ZZ=            -57.8694
   XY=              9.7188   XZ=             -0.8884   YZ=             -3.8825
 Octapole moment (field-independent basis, Debye-Ang**2):
  XXX=            -23.3228  YYY=             -0.1116  ZZZ=              4.7649  XYY=             32.9296
  XXY=            -18.8381  XXZ=            -11.9577  XZZ=             -1.8707  YZZ=              3.3561
  YYZ=              3.2310  XYZ=             20.2470
 Hexadecapole moment (field-independent basis, Debye-Ang**3):
 XXXX=         -12486.4329 YYYY=          -2249.2106 ZZZZ=           -349.6772 XXXY=            -24.7582
 XXXZ=             41.4046 YYYX=             57.2325 YYYZ=            -21.1338 ZZZX=              7.9603
 ZZZY=             -2.2485 XXYY=          -2815.2096 XXZZ=          -3397.3099 YYZZ=           -487.6143
 XXYZ=           -102.4786 YYXZ=             -3.3085 ZZXY=             39.6649
 N-N= 2.277528418466D+03 E-N=-8.564428755579D+03  KE= 1.712098851450D+03
 1\1\GINC-CN01\SP\RPBE1PBE TD-FC\6-311G(2d,p)\C21H21N2S2(1+)\2100011837
 \25-Oct-2023\0\\# td PBE1PBE/6-311g(2d,p)\\2\\1,1\C,0,-4.28858,-1.2264
 1,0.099993\C,0,-5.197859,-2.280494,0.0839\C,0,-6.558232,-1.97434,0.106
 695\C,0,-6.988747,-0.642065,0.142172\C,0,-6.077993,0.412754,0.159833\C
 ,0,-4.712749,0.110342,0.144185\N,0,-3.639165,1.015186,0.171591\C,0,-2.
 403589,0.443251,0.111697\S,0,-2.528609,-1.313696,0.069695\C,0,2.594899
 ,0.786965,0.02597\S,0,3.859463,1.94413,0.420763\C,0,5.10685,0.730735,0
 .187808\C,0,4.530039,-0.497436,-0.170722\N,0,3.128283,-0.42951,-0.2752
 6\C,0,-3.851203,2.473891,0.223655\C,0,-3.946648,3.111184,-1.163512\C,0
 ,2.357415,-1.57827,-0.783694\C,0,1.960428,-2.57228,0.309454\C,0,6.4865
 79,0.875917,0.320338\C,0,7.289151,-0.239683,0.090311\C,0,6.718404,-1.4
 6994,-0.262856\C,0,5.33931,-1.615847,-0.396422\C,0,-1.189322,1.137534,
 0.08087\C,0,0.065545,0.525426,0.047357\C,0,1.262766,1.237195,0.052991\
 H,0,-4.858204,-3.310726,0.053193\H,0,-7.287268,-2.778005,0.093771\H,0,
 -8.051228,-0.421039,0.153713\H,0,-6.431871,1.437365,0.177623\H,0,-3.03
 8338,2.907136,0.810234\H,0,-4.764597,2.639278,0.798933\H,0,-4.116811,4
 .187724,-1.061647\H,0,-4.776116,2.686672,-1.73712\H,0,-3.02471,2.96212
 3,-1.734019\H,0,2.981439,-2.063816,-1.53852\H,0,1.48967,-1.178912,-1.3
 11727\H,0,1.395597,-3.398621,-0.13433\H,0,1.34,-2.104748,1.080591\H,0,
 2.843123,-2.990335,0.802324\H,0,6.922631,1.830845,0.595195\H,0,8.36632
 3,-0.152863,0.188984\H,0,7.358535,-2.329561,-0.433487\H,0,4.916644,-2.
 578641,-0.660259\H,0,-1.226453,2.221586,0.07248\H,0,0.090592,-0.559758
 ,0.052376\H,0,1.174748,2.31704,0.149911\\Version=ES64L-G16RevA.03\Stat
 e=1-A\HF=-1717.4695284\RMSD=5.854e-09\PG=C01 [X(C21H21N2S2)]\\@


 The theorems and results in mathematical physics are
 not theorems and results about Nature, but about our
 description of it.
                   --Gerard 't Hooft
 Job cpu time:       0 days  3 hours 22 minutes 58.1 seconds.
 Elapsed time:       0 days  0 hours 10 minutes 10.9 seconds.
 File lengths (MBytes):  RWF=   2752 Int=      0 D2E=      0 Chk=     96 Scr=     32
 Normal termination of Gaussian 16 at Wed Oct 25 13:13:31 2023.
