 Entering Gaussian System, Link 0=g16
 Input=3.gjf
 Output=3.log
 Initial command:
 /nfs-share/home/2100011837/g16/l1.exe "/nfs-share/home/2100011837/g16tmp/Gau-222871.inp" -scrdir="/nfs-share/home/2100011837/g16tmp/"
 Entering Link 1 = /nfs-share/home/2100011837/g16/l1.exe PID=    222872.
  
 Copyright (c) 1988,1990,1992,1993,1995,1998,2003,2009,2016,
            Gaussian, Inc.  All Rights Reserved.
  
 This is part of the Gaussian(R) 16 program.  It is based on
 the Gaussian(R) 09 system (copyright 2009, Gaussian, Inc.),
 the Gaussian(R) 03 system (copyright 2003, Gaussian, Inc.),
 the Gaussian(R) 98 system (copyright 1998, Gaussian, Inc.),
 the Gaussian(R) 94 system (copyright 1995, Gaussian, Inc.),
 the Gaussian 92(TM) system (copyright 1992, Gaussian, Inc.),
 the Gaussian 90(TM) system (copyright 1990, Gaussian, Inc.),
 the Gaussian 88(TM) system (copyright 1988, Gaussian, Inc.),
 the Gaussian 86(TM) system (copyright 1986, Carnegie Mellon
 University), and the Gaussian 82(TM) system (copyright 1983,
 Carnegie Mellon University). Gaussian is a federally registered
 trademark of Gaussian, Inc.
  
 This software contains proprietary and confidential information,
 including trade secrets, belonging to Gaussian, Inc.
  
 This software is provided under written license and may be
 used, copied, transmitted, or stored only in accord with that
 written license.
  
 The following legend is applicable only to US Government
 contracts under FAR:
  
                    RESTRICTED RIGHTS LEGEND
  
 Use, reproduction and disclosure by the US Government is
 subject to restrictions as set forth in subparagraphs (a)
 and (c) of the Commercial Computer Software - Restricted
 Rights clause in FAR 52.227-19.
  
 Gaussian, Inc.
 340 Quinnipiac St., Bldg. 40, Wallingford CT 06492
  
  
 ---------------------------------------------------------------
 Warning -- This program may not be used in any manner that
 competes with the business of Gaussian, Inc. or will provide
 assistance to any competitor of Gaussian, Inc.  The licensee
 of this program is prohibited from giving any competitor of
 Gaussian, Inc. access to this program.  By using this program,
 the user acknowledges that Gaussian, Inc. is engaged in the
 business of creating and licensing software in the field of
 computational chemistry and represents and warrants to the
 licensee that it is not a competitor of Gaussian, Inc. and that
 it will not use this program in any manner prohibited above.
 ---------------------------------------------------------------
  

 Cite this work as:
 Gaussian 16, Revision A.03,
 M. J. Frisch, G. W. Trucks, H. B. Schlegel, G. E. Scuseria, 
 M. A. Robb, J. R. Cheeseman, G. Scalmani, V. Barone, 
 G. A. Petersson, H. Nakatsuji, X. Li, M. Caricato, A. V. Marenich, 
 J. Bloino, B. G. Janesko, R. Gomperts, B. Mennucci, H. P. Hratchian, 
 J. V. Ortiz, A. F. Izmaylov, J. L. Sonnenberg, D. Williams-Young, 
 F. Ding, F. Lipparini, F. Egidi, J. Goings, B. Peng, A. Petrone, 
 T. Henderson, D. Ranasinghe, V. G. Zakrzewski, J. Gao, N. Rega, 
 G. Zheng, W. Liang, M. Hada, M. Ehara, K. Toyota, R. Fukuda, 
 J. Hasegawa, M. Ishida, T. Nakajima, Y. Honda, O. Kitao, H. Nakai, 
 T. Vreven, K. Throssell, J. A. Montgomery, Jr., J. E. Peralta, 
 F. Ogliaro, M. J. Bearpark, J. J. Heyd, E. N. Brothers, K. N. Kudin, 
 V. N. Staroverov, T. A. Keith, R. Kobayashi, J. Normand, 
 K. Raghavachari, A. P. Rendell, J. C. Burant, S. S. Iyengar, 
 J. Tomasi, M. Cossi, J. M. Millam, M. Klene, C. Adamo, R. Cammi, 
 J. W. Ochterski, R. L. Martin, K. Morokuma, O. Farkas, 
 J. B. Foresman, and D. J. Fox, Gaussian, Inc., Wallingford CT, 2016.
 
 ******************************************
 Gaussian 16:  ES64L-G16RevA.03 25-Dec-2016
                25-Oct-2023 
 ******************************************
 %nprocshared=20
 Will use up to   20 processors via shared memory.
 %mem=20GB
 -------------------------
 # td PBE1PBE/6-311g(2d,p)
 -------------------------
 1/38=1,172=1/1;
 2/12=2,17=6,18=5,40=1/2;
 3/5=4,6=6,7=102,11=9,25=1,30=1,74=-13/1,2,3,8;
 4//1;
 5/5=2,38=5/2;
 8/6=1,10=2/1;
 9/42=1,70=2/14;
 6/7=2,8=2,9=2,10=2/1;
 99/5=1,9=1/99;
 -
 3
 -
 Symbolic Z-matrix:
 Charge =  1 Multiplicity = 1
 C                     5.5986   -1.34109  -0.00706 
 C                     6.47249  -2.42243  -0.01189 
 C                     7.84758  -2.15923  -0.01329 
 C                     8.31563  -0.8373   -0.01 
 C                     7.43052   0.24554  -0.00508 
 C                     6.05179  -0.01427  -0.00337 
 N                     5.00867   0.95334   0.0017 
 C                     3.73598   0.44066   0.00063 
 S                     3.78436  -1.39398  -0.00484 
 C                    -3.75793   0.70226   0.00122 
 S                    -5.01518   2.01165  -0.00627 
 C                    -6.31251   0.74987  -0.008 
 C                    -5.76546  -0.5492   -0.00267 
 N                    -4.33685  -0.54551   0.00433 
 C                     5.46386   2.38445   0.00682 
 C                     4.44273   3.51883   0.02309 
 C                    -3.40952  -1.72043   0.01686 
 C                    -3.97753  -3.13793   0.04325 
 C                    -7.68254   0.99414  -0.01461 
 C                    -8.55073  -0.09938  -0.01652 
 C                    -8.02994  -1.40082  -0.01221 
 C                    -6.6534   -1.64013  -0.00547 
 C                    -1.19274   0.44854   0.00179 
 C                    -2.4208    1.12329   0.00308 
 C                     2.50826   1.10398   0.00268 
 C                     1.26507   0.46137   0.0013 
 C                     0.03545   1.12252   0.00337 
 H                     6.10137  -3.44036  -0.01461 
 H                     8.55071  -2.98386  -0.01708 
 H                     9.38229  -0.64491  -0.01137 
 H                     7.81999   1.25452  -0.003 
 H                     6.09755   2.49358  -0.8807 
 H                     6.11076   2.48177   0.88606 
 H                     5.01177   4.45482   0.03006 
 H                     3.81971   3.51533   0.92066 
 H                     3.81154   3.53393  -0.86859 
 H                    -2.77199  -1.58756   0.89793 
 H                    -2.77926  -1.61551  -0.87331 
 H                    -3.1202   -3.8198    0.06035 
 H                    -4.56048  -3.37734  -0.84858 
 H                    -4.56765  -3.34072   0.93951 
 H                    -8.06297   2.00876  -0.01846 
 H                    -9.62237   0.06087  -0.02173 
 H                    -8.70448  -2.24942  -0.01434 
 H                    -6.31051  -2.6589   -0.00306 
 H                    -1.14383  -0.63363  -0.0017 
 H                    -2.33064   2.2071    0.004 
 H                     2.50125   2.18162   0.00525 
 H                     1.23924  -0.62836  -0.00161 
 H                     0.02942   2.21102   0.00636 
 
                          Input orientation:                          
 ---------------------------------------------------------------------
 Center     Atomic      Atomic             Coordinates (Angstroms)
 Number     Number       Type             X           Y           Z
 ---------------------------------------------------------------------
      1          6           0        5.598601   -1.341094   -0.007061
      2          6           0        6.472492   -2.422432   -0.011892
      3          6           0        7.847580   -2.159226   -0.013286
      4          6           0        8.315634   -0.837298   -0.010001
      5          6           0        7.430522    0.245543   -0.005081
      6          6           0        6.051786   -0.014271   -0.003370
      7          7           0        5.008669    0.953335    0.001698
      8          6           0        3.735978    0.440659    0.000627
      9         16           0        3.784358   -1.393975   -0.004841
     10          6           0       -3.757932    0.702261    0.001220
     11         16           0       -5.015177    2.011654   -0.006267
     12          6           0       -6.312514    0.749865   -0.007997
     13          6           0       -5.765462   -0.549197   -0.002665
     14          7           0       -4.336845   -0.545510    0.004333
     15          6           0        5.463856    2.384446    0.006824
     16          6           0        4.442730    3.518833    0.023090
     17          6           0       -3.409521   -1.720425    0.016855
     18          6           0       -3.977526   -3.137934    0.043250
     19          6           0       -7.682542    0.994144   -0.014610
     20          6           0       -8.550732   -0.099379   -0.016520
     21          6           0       -8.029944   -1.400820   -0.012208
     22          6           0       -6.653400   -1.640134   -0.005468
     23          6           0       -1.192737    0.448543    0.001786
     24          6           0       -2.420801    1.123289    0.003079
     25          6           0        2.508263    1.103976    0.002676
     26          6           0        1.265069    0.461367    0.001302
     27          6           0        0.035449    1.122518    0.003368
     28          1           0        6.101367   -3.440361   -0.014614
     29          1           0        8.550709   -2.983856   -0.017075
     30          1           0        9.382294   -0.644911   -0.011373
     31          1           0        7.819986    1.254521   -0.003004
     32          1           0        6.097547    2.493575   -0.880704
     33          1           0        6.110765    2.481774    0.886059
     34          1           0        5.011773    4.454819    0.030058
     35          1           0        3.819706    3.515333    0.920655
     36          1           0        3.811538    3.533932   -0.868586
     37          1           0       -2.771988   -1.587563    0.897926
     38          1           0       -2.779255   -1.615513   -0.873313
     39          1           0       -3.120195   -3.819797    0.060350
     40          1           0       -4.560476   -3.377342   -0.848580
     41          1           0       -4.567649   -3.340716    0.939512
     42          1           0       -8.062971    2.008762   -0.018462
     43          1           0       -9.622367    0.060872   -0.021732
     44          1           0       -8.704480   -2.249417   -0.014335
     45          1           0       -6.310509   -2.658897   -0.003059
     46          1           0       -1.143829   -0.633631   -0.001701
     47          1           0       -2.330639    2.207101    0.003995
     48          1           0        2.501254    2.181621    0.005248
     49          1           0        1.239239   -0.628356   -0.001612
     50          1           0        0.029416    2.211020    0.006356
 ---------------------------------------------------------------------
                    Distance matrix (angstroms):
                    1          2          3          4          5
     1  C    0.000000
     2  C    1.390324   0.000000
     3  C    2.393175   1.400052   0.000000
     4  C    2.763347   2.431013   1.402348   0.000000
     5  C    2.423501   2.834777   2.440680   1.398568   0.000000
     6  C    1.402088   2.444648   2.797464   2.408822   1.403004
     7  N    2.369072   3.679506   4.212799   3.760654   2.523170
     8  C    2.577609   3.960550   4.864655   4.754633   3.699697
     9  S    1.815015   2.878166   4.134665   4.565345   3.997816
    10  C    9.577060  10.696983  11.953084  12.171334  11.197774
    11  S   11.130732  12.313720  13.522086  13.631840  12.570385
    12  C   12.093253  13.172694  14.455833  14.714000  13.752287
    13  C   11.391622  12.380493  13.707925  14.084045  13.219895
    14  N    9.967255  10.971092  12.290834  12.655851  11.793930
    15  C    3.728002   4.911596   5.131033   4.302622   2.905654
    16  C    4.995582   6.278518   6.620776   5.828924   4.431943
    17  C    9.016137   9.906958  11.265690  11.758397  11.016898
    18  C    9.743376  10.474629  11.865673  12.506700  11.899320
    19  C   13.484886  14.561524  15.847032  16.102666  15.131596
    20  C   14.203717  15.201771  16.527178  16.882502  15.984980
    21  C   13.628677  14.538375  15.895627  16.355289  15.547880
    22  C   12.255650  13.149185  14.510270  14.990549  14.209597
    23  C    7.023187   8.185256   9.408933   9.594928   8.625651
    24  C    8.389523   9.574081  10.780298  10.913987   9.890352
    25  C    3.940641   5.305740   6.257559   6.123256   4.996559
    26  C    4.693446   5.952623   7.084996   7.169179   6.169233
    27  C    6.084255   7.348634   8.473459   8.508967   7.446896
    28  H    2.158646   1.083476   2.165772   3.417446   3.918244
    29  H    3.378418   2.152721   1.083706   2.159403   3.418184
    30  H    3.847210   3.409770   2.156038   1.083872   2.145312
    31  H    3.416399   3.916095   3.413874   2.149749   1.081537
    32  H    3.964453   5.006250   5.046146   4.095455   2.756299
    33  H    3.959078   4.998840   5.036291   4.084190   2.745290
    34  H    5.825663   7.030792   7.196476   6.238878   4.854852
    35  H    5.254523   6.569929   7.021156   6.326522   4.958478
    36  H    5.263240   6.579732   7.030876   6.334959   4.965500
    37  H    8.422975   9.326585  10.673909  11.150004  10.405139
    38  H    8.426991   9.326735  10.675434  11.155603  10.414264
    39  H    9.064542   9.694199  11.093016  11.818563  11.307029
    40  H   10.395254  11.105777  12.495654  13.151017  12.554713
    41  H   10.404188  11.119044  12.507664  13.158558  12.558249
    42  H   14.066279  15.195894  16.447425  16.624044  15.593507
    43  H   15.285405  16.285312  17.610450  17.960477  17.053897
    44  H   14.331896  15.177958  16.552306  17.078594  16.326763
    45  H   11.981800  12.785191  14.166907  14.739143  14.044633
    46  H    6.779447   7.823571   9.119924   9.461659   8.619307
    47  H    8.686924   9.946253  11.075254  11.073016   9.956307
    48  H    4.690760   6.080159   6.886690   6.551421   5.295865
    49  H    4.417246   5.532246   6.783352   7.079484   6.252655
    50  H    6.605567   7.936148   8.956736   8.829152   7.657650
                    6          7          8          9         10
     6  C    0.000000
     7  N    1.422807   0.000000
     8  C    2.360073   1.372072   0.000000
     9  S    2.654207   2.647422   1.835280   0.000000
    10  C    9.835853   8.770196   7.498475   7.828179   0.000000
    11  S   11.250869  10.079563   8.891051   9.435578   1.815277
    12  C   12.387891  11.323015  10.053252  10.321961   2.555042
    13  C   11.829349  10.878397   9.552863   9.587112   2.365658
    14  N   10.402208   9.464945   8.132836   8.165410   1.375530
    15  C    2.469739   1.501766   2.600752   4.134890   9.373961
    16  C    3.882343   2.627266   3.158347   4.956805   8.670895
    17  C    9.613933   8.832618   7.465166   7.201315   2.447661
    18  C   10.504596   9.873799   8.503310   7.955536   3.846698
    19  C   13.771303  12.691287  11.431937  11.712942   3.935481
    20  C   14.602772  13.600217  12.298584  12.402845   4.859411
    21  C   14.149831  13.249440  11.909162  11.814306   4.761640
    22  C   12.808793  11.946966  10.595703  10.440660   3.724325
    23  C    7.259293   6.221917   4.928721   5.307202   2.577712
    24  C    8.548615   7.431414   6.194507   6.696318   1.401851
    25  C    3.715786   2.504940   1.395449   2.805037   6.279059
    26  C    4.810292   3.775788   2.470996   3.128762   5.028774
    27  C    6.122797   4.976097   3.762825   4.515210   3.816590
    28  H    3.426467   4.527562   4.545065   3.091330  10.694267
    29  H    3.881139   5.296024   5.908405   5.024537  12.848752
    30  H    3.389698   4.656518   5.749738   5.647834  13.209109
    31  H    2.176319   2.827408   4.164313   4.827093  11.591083
    32  H    2.657273   2.082457   3.250879   4.607714  10.055698
    33  H    2.650435   2.081546   3.254190   4.607310  10.066816
    34  H    4.588628   3.501600   4.212125   5.976300   9.538881
    35  H    4.277161   2.970177   3.210464   4.995908   8.135068
    36  H    4.284513   2.974895   3.213966   5.003105   8.128456
    37  H    9.008139   8.233955   6.875496   6.621037   2.649427
    38  H    9.017098   8.247205   6.887661   6.624526   2.663586
    39  H    9.930323   9.426805   8.072308   7.318587   4.567189
    40  H   11.164440  10.537849   9.172210   8.618694   4.243748
    41  H   11.168109  10.536804   9.172269   8.627724   4.228676
    42  H   14.259006  13.114195  11.902710  12.326314   4.498966
    43  H   15.674344  14.658249  13.363761  13.485442   5.899450
    44  H   14.924590  14.082199  12.727990  12.518105   5.760294
    45  H   12.642009  11.881584  10.513761  10.173808   4.220551
    46  H    7.222222   6.353873   4.996661   4.986498   2.935669
    47  H    8.671770   7.445628   6.318558   7.096549   2.074058
    48  H    4.174721   2.792101   2.134365   3.798861   6.431635
    49  H    4.851568   4.087831   2.715972   2.657784   5.171293
    50  H    6.420355   5.135636   4.107653   5.205353   4.076811
                   11         12         13         14         15
    11  S    0.000000
    12  C    1.809751   0.000000
    13  C    2.668501   1.409559   0.000000
    14  N    2.645626   2.362502   1.428639   0.000000
    15  C   10.485670  11.889279  11.606202  10.229291   0.000000
    16  C    9.577289  11.106008  10.988936   9.674718   1.526367
    17  C    4.062891   3.811866   2.631086   1.496834   9.776855
    18  C    5.253325   4.535392   3.146487   2.617496  10.937902
    19  C    2.854861   1.391651   2.461146   3.683013  13.219727
    20  C    4.117853   2.393931   2.821393   4.237489  14.233011
    21  C    4.553442   2.752277   2.419345   3.790885  14.014679
    22  C    4.002416   2.414188   1.406622   2.562172  12.768136
    23  C    4.129701   5.128646   4.680312   3.297509   6.932386
    24  C    2.742274   3.909603   3.739519   2.540889   7.984882
    25  C    7.578002   8.827889   8.437271   7.041045   3.221048
    26  C    6.468766   7.583079   7.102790   5.691683   4.618233
    27  C    5.128302   6.358902   6.036989   4.679666   5.573157
    28  H   12.381522  13.102003  12.213951  10.832211   5.859629
    29  H   14.456435  15.325017  14.521726  13.116213   6.192568
    30  H   14.640510  15.756662  15.148061  13.719508   4.952928
    31  H   12.857475  14.141508  13.704663  12.289374   2.613078
    32  H   11.157487  12.562315  12.278453  10.903938   1.095983
    33  H   11.171564  12.575242  12.289076  10.913040   1.095910
    34  H   10.320373  11.915016  11.882342  10.601915   2.119284
    35  H    9.009739  10.543818  10.452194   9.157479   2.194817
    36  H    8.998434  10.535088  10.447042   9.154233   2.194952
    37  H    4.336338   4.338155   3.293957   2.081624   9.186950
    38  H    4.348271   4.339090   3.288235   2.083568   9.204520
    39  H    6.131983   5.574709   4.206927   3.493470  10.591573
    40  H    5.473347   4.561804   3.188411   2.965931  11.593841
    41  H    5.453682   4.546997   3.180414   2.956519  11.587859
    42  H    3.047820   2.156161   3.438306   4.517614  13.532067
    43  H    5.003198   3.380832   3.904903   5.320256  15.264139
    44  H    5.636288   3.836305   3.395396   4.688271  14.906874
    45  H    4.846849   3.408766   2.178970   2.891679  12.809023
    46  H    4.688805   5.350645   4.622404   3.194237   7.264321
    47  H    2.691663   4.240166   4.404002   3.406131   7.796513
    48  H    7.518361   8.929312   8.706091   7.361850   2.969537
    49  H    6.788770   7.676491   7.005148   5.576703   5.188876
    50  H    5.048547   6.508092   6.418683   5.163593   5.437207
                   16         17         18         19         20
    16  C    0.000000
    17  C    9.439688   0.000000
    18  C   10.733763   1.527304   0.000000
    19  C   12.385382   5.062468   5.550186   0.000000
    20  C   13.487886   5.390821   5.490956   1.396263   0.000000
    21  C   13.407902   4.631555   4.409391   2.420030   1.401780
    22  C   12.236824   3.244949   3.066933   2.828186   2.444160
    23  C    6.417603   3.101416   4.540879   6.512720   7.378390
    24  C    7.269600   3.010725   4.536852   5.263355   6.250708
    25  C    3.094206   6.557256   7.749897  10.191412  11.124289
    26  C    4.409774   5.158706   6.359366   8.963473   9.831821
    27  C    5.016656   4.466579   5.852949   7.719079   8.672712
    28  H    7.154221   9.665204  10.083595  14.479675  15.028179
    29  H    7.691688  12.026825  12.529328  16.713555  17.342995
    30  H    6.460437  12.836980  13.590546  17.143370  17.941323
    31  H    4.066159  11.616907  12.588768  15.504719  16.426614
    32  H    2.146256  10.437804  11.579062  13.888458  14.901084
    33  H    2.145355  10.442693  11.578647  13.902502  14.914305
    34  H    1.095412  10.442797  11.766799  13.157656  14.306797
    35  H    1.092609   8.971719  10.287499  11.812401  12.921771
    36  H    1.092574   8.974183  10.296347  11.802274  12.913276
    37  H    8.882160   1.095622   2.141832   5.622408   6.036952
    38  H    8.906296   1.095738   2.143293   5.620490   6.028491
    39  H   10.538250   2.119661   1.095557   6.632847   6.583172
    40  H   11.374302   2.195233   1.092020   5.436239   5.230632
    41  H   11.361345   2.194971   1.092086   5.422538   5.223525
    42  H   12.596611   5.963445   6.571389   1.083601   2.163833
    43  H   14.484007   6.463278   6.488514   2.152665   1.083563
    44  H   14.356993   5.321409   4.810080   3.400742   2.155529
    45  H   12.401499   3.049075   2.382106   3.902219   3.401457
    46  H    6.960834   2.512932   3.781983   6.738292   7.426160
    47  H    6.899241   4.073035   5.593137   5.487666   6.633990
    48  H    2.357495   7.082610   8.382941  10.252814  11.284938
    49  H    5.240433   4.775346   5.789182   9.068123   9.804263
    50  H    4.603042   5.223280   6.683431   7.807402   8.885798
                   21         22         23         24         25
    21  C    0.000000
    22  C    1.397208   0.000000
    23  C    7.082919   5.846492   0.000000
    24  C    6.150922   5.054847   1.401223   0.000000
    25  C   10.831806   9.563800   3.758589   4.929102   0.000000
    26  C    9.479725   8.192588   2.457840   3.744834   1.399457
    27  C    8.450920   7.236921   1.400959   2.456250   2.472884
    28  H   14.277734  12.881187   8.266063   9.667190   5.793246
    29  H   16.656052  15.263376  10.330366  11.715079   7.295335
    30  H   17.428638  16.066549  10.631420  11.934814   7.093032
    31  H   16.070818  14.760011   9.048690  10.241630   5.313859
    32  H   14.680143  13.432805   7.622938   8.673005   3.948963
    33  H   14.691531  13.442799   7.632634   8.684052   3.956857
    34  H   14.296037  13.161534   7.385593   8.145120   4.182877
    35  H   12.862853  11.709931   5.947613   6.745943   2.894341
    36  H   12.857133  11.706018   5.943058   6.738920   2.891766
    37  H    5.339412   3.985504   2.728155   2.876248   5.993906
    38  H    5.325160   3.970234   2.746482   2.897859   6.010060
    39  H    5.473788   4.151963   4.683722   4.992648   7.478396
    40  H    4.079628   2.847641   5.167416   5.055612   8.412724
    41  H    4.081232   2.852249   5.160218   5.041151   8.408417
    42  H    3.409748   3.911713   7.045198   5.711270  10.609904
    43  H    2.161584   3.421761   8.438572   7.279553  12.175420
    44  H    1.084030   2.139681   7.981574   7.131625  11.703467
    45  H    2.130563   1.074922   5.987303   5.425384   9.588013
    46  H    6.928728   5.600753   1.083284   2.171969   4.044388
    47  H    6.745327   5.786845   2.094601   1.087556   4.963049
    48  H   11.123863   9.920364   4.080336   5.034550   1.077671
    49  H    9.301321   7.957227   2.659743   4.057607   2.147420
    50  H    8.831705   7.713077   2.144762   2.680808   2.714819
                   26         27         28         29         30
    26  C    0.000000
    27  C    1.396098   0.000000
    28  H    6.213977   7.590491   0.000000
    29  H    8.059184   9.453697   2.491521   0.000000
    30  H    8.192274   9.512494   4.310340   2.482384   0.000000
    31  H    6.602730   7.785659   4.999570   4.300929   2.459414
    32  H    5.316074   6.277771   5.996809   6.063506   4.625515
    33  H    5.324059   6.287781   5.990241   6.053271   4.613507
    34  H    5.475973   5.989052   7.970137   8.237729   6.716429
    35  H    4.086329   4.570293   7.379863   8.093280   7.008473
    36  H    4.084344   4.564435   7.390084   8.103479   7.016471
    37  H    4.615179   4.003308   9.110544  11.445101  12.224647
    38  H    4.629788   4.023424   9.106749  11.444369  12.230629
    39  H    6.128817   5.864112   9.229669  11.701059  12.899507
    40  H    7.028155   6.488226  10.694595  13.143417  14.232636
    41  H    7.025430   6.479609  10.712058  13.158029  14.239819
    42  H    9.455536   8.146798  15.176344  17.347640  17.645943
    43  H   10.894824   9.716025  16.108833  18.426369  19.017765
    44  H   10.331529   9.367850  14.853668  17.270812  18.157804
    45  H    8.193012   7.387173  12.436458  14.864777  15.821513
    46  H    2.646095   2.115368   7.769863   9.975363  10.526133
    47  H    3.997088   2.602824  10.148542  12.056128  12.055165
    48  H    2.118359   2.683635   6.675919   7.954782   7.438970
    49  H    1.090033   2.124781   5.616745   7.681550   8.143078
    50  H    2.141997   1.088523   8.295007   9.979966   9.779212
                   31         32         33         34         35
    31  H    0.000000
    32  H    2.296173   0.000000
    33  H    2.284298   1.766852   0.000000
    34  H    4.257823   2.419684   2.415249   0.000000
    35  H    4.686860   3.078546   2.513641   1.759779   0.000000
    36  H    4.691759   2.511638   3.077704   1.759590   1.789356
    37  H   11.003592   9.924105   9.770514   9.891942   8.336096
    38  H   11.015373   9.781732   9.945633   9.917919   8.549280
    39  H   12.059862  11.212092  11.207239  11.601685  10.134421
    40  H   13.245565  12.168079  12.296894  12.399302  10.993935
    41  H   13.246058  12.292215  12.162762  12.383973  10.832981
    42  H   15.900863  14.195026  14.210443  13.301672  12.014562
    43  H   17.483158  15.930209  15.944162  15.279644  13.910813
    44  H   16.891882  15.567484  15.578394  15.267100  13.818892
    45  H   14.662392  13.463955  13.472382  13.371616  11.899396
    46  H    9.160518   7.936598   7.944998   7.986537   6.534625
    47  H   10.195227   8.479332   8.491807   7.678797   6.354406
    48  H    5.398934   3.716927   3.727531   3.386850   2.086881
    49  H    6.844813   5.841439   5.847447   6.330220   4.967851
    50  H    7.849074   6.139131   6.150609   5.464346   4.111383
                   36         37         38         39         40
    36  H    0.000000
    37  H    8.526024   0.000000
    38  H    8.363932   1.771474   0.000000
    39  H   10.148358   2.409492   2.418023   0.000000
    40  H   10.856184   3.074456   2.505474   1.759639   0.000000
    41  H   10.988211   2.509915   3.075876   1.759991   1.788481
    42  H   12.002201   6.462803   6.464039   7.642601   6.478170
    43  H   13.901407   7.105688   7.096734   7.572620   6.174766
    44  H   13.814036   6.038603   6.020629   5.801371   4.375037
    45  H   11.897735   3.805346   3.783616   3.395558   2.072121
    46  H    6.532667   2.090506   2.097241   3.749870   4.463029
    47  H    6.344148   3.923439   3.947569   6.078657   6.073307
    48  H    2.075855   6.542989   6.563069   8.223183   9.027686
    49  H    4.969206   4.221278   4.228787   5.403129   6.473868
    50  H    4.101227   4.803332   4.827505   6.803949   7.282020
                   41         42         43         44         45
    41  H    0.000000
    42  H    6.461571   0.000000
    43  H    6.168060   2.495196   0.000000
    44  H    4.383392   4.306233   2.485962   0.000000
    45  H    2.095442   4.985820   4.285545   2.428765   0.000000
    46  H    4.465057   7.406554   8.506958   7.731388   5.549440
    47  H    6.054559   5.735806   7.601070   7.777322   6.286283
    48  H    9.018783  10.565666  12.307741  12.050019  10.053748
    49  H    6.477851   9.668805  10.883470  10.074996   7.818043
    50  H    7.268119   8.094952   9.888420   9.806980   7.994425
                   46         47         48         49         50
    46  H    0.000000
    47  H    3.078686   0.000000
    48  H    4.605684   4.831960   0.000000
    49  H    2.383074   4.558934   3.080373   0.000000
    50  H    3.077110   2.360059   2.472013   3.086388   0.000000
 Stoichiometry    C23H23N2S2(1+)
 Framework group  C1[X(C23H23N2S2)]
 Deg. of freedom   144
 Full point group                 C1      NOp   1
 Largest Abelian subgroup         C1      NOp   1
 Largest concise Abelian subgroup C1      NOp   1
                         Standard orientation:                         
 ---------------------------------------------------------------------
 Center     Atomic      Atomic             Coordinates (Angstroms)
 Number     Number       Type             X           Y           Z
 ---------------------------------------------------------------------
      1          6           0        5.598601   -1.341094   -0.007061
      2          6           0        6.472492   -2.422432   -0.011892
      3          6           0        7.847580   -2.159226   -0.013286
      4          6           0        8.315634   -0.837298   -0.010001
      5          6           0        7.430522    0.245543   -0.005081
      6          6           0        6.051786   -0.014271   -0.003370
      7          7           0        5.008669    0.953335    0.001698
      8          6           0        3.735978    0.440659    0.000627
      9         16           0        3.784358   -1.393975   -0.004841
     10          6           0       -3.757932    0.702261    0.001220
     11         16           0       -5.015177    2.011654   -0.006267
     12          6           0       -6.312514    0.749865   -0.007997
     13          6           0       -5.765462   -0.549197   -0.002665
     14          7           0       -4.336845   -0.545510    0.004333
     15          6           0        5.463856    2.384446    0.006824
     16          6           0        4.442730    3.518833    0.023090
     17          6           0       -3.409521   -1.720425    0.016855
     18          6           0       -3.977526   -3.137934    0.043250
     19          6           0       -7.682542    0.994144   -0.014610
     20          6           0       -8.550732   -0.099379   -0.016520
     21          6           0       -8.029944   -1.400820   -0.012208
     22          6           0       -6.653400   -1.640134   -0.005468
     23          6           0       -1.192737    0.448543    0.001786
     24          6           0       -2.420801    1.123289    0.003079
     25          6           0        2.508263    1.103976    0.002676
     26          6           0        1.265069    0.461367    0.001302
     27          6           0        0.035449    1.122518    0.003368
     28          1           0        6.101367   -3.440361   -0.014614
     29          1           0        8.550709   -2.983856   -0.017075
     30          1           0        9.382294   -0.644911   -0.011373
     31          1           0        7.819986    1.254521   -0.003004
     32          1           0        6.097547    2.493575   -0.880704
     33          1           0        6.110765    2.481774    0.886059
     34          1           0        5.011773    4.454819    0.030058
     35          1           0        3.819706    3.515333    0.920655
     36          1           0        3.811538    3.533932   -0.868586
     37          1           0       -2.771988   -1.587563    0.897926
     38          1           0       -2.779255   -1.615513   -0.873313
     39          1           0       -3.120195   -3.819797    0.060350
     40          1           0       -4.560476   -3.377342   -0.848580
     41          1           0       -4.567649   -3.340716    0.939512
     42          1           0       -8.062971    2.008762   -0.018462
     43          1           0       -9.622367    0.060872   -0.021732
     44          1           0       -8.704480   -2.249417   -0.014335
     45          1           0       -6.310509   -2.658897   -0.003059
     46          1           0       -1.143829   -0.633631   -0.001701
     47          1           0       -2.330639    2.207101    0.003995
     48          1           0        2.501254    2.181621    0.005248
     49          1           0        1.239239   -0.628356   -0.001612
     50          1           0        0.029416    2.211020    0.006356
 ---------------------------------------------------------------------
 Rotational constants (GHZ):           0.4895343           0.0443562           0.0407132
 Standard basis: 6-311G(2d,p) (5D, 7F)
 There are   829 symmetry adapted cartesian basis functions of A   symmetry.
 There are   775 symmetry adapted basis functions of A   symmetry.
   775 basis functions,  1238 primitive gaussians,   829 cartesian basis functions
   103 alpha electrons      103 beta electrons
       nuclear repulsion energy      2398.8112724325 Hartrees.
 NAtoms=   50 NActive=   50 NUniq=   50 SFac= 1.00D+00 NAtFMM=   60 NAOKFM=F Big=F
 Integral buffers will be    131072 words long.
 Regular integral format.
 Two-electron integral symmetry is turned on.
 One-electron integrals computed using PRISM.
 NBasis=   775 RedAO= T EigKep=  5.69D-05  NBF=   775
 NBsUse=   775 1.00D-06 EigRej= -1.00D+00 NBFU=   775
 ExpMin= 7.71D-02 ExpMax= 9.34D+04 ExpMxC= 3.17D+03 IAcc=3 IRadAn=         5 AccDes= 0.00D+00
 Harris functional with IExCor= 1009 and IRadAn=       5 diagonalized for initial guess.
 HarFok:  IExCor= 1009 AccDes= 0.00D+00 IRadAn=         5 IDoV= 1 UseB2=F ITyADJ=14
 ICtDFT=  3500011 ScaDFX=  1.000000  1.000000  1.000000  1.000000
 FoFCou: FMM=F IPFlag=           0 FMFlag=      100000 FMFlg1=           0
         NFxFlg=           0 DoJE=T BraDBF=F KetDBF=T FulRan=T
         wScrn=  0.000000 ICntrl=       500 IOpCl=  0 I1Cent=   200000004 NGrid=           0
         NMat0=    1 NMatS0=      1 NMatT0=    0 NMatD0=    1 NMtDS0=    0 NMtDT0=    0
 Petite list used in FoFCou.
 Requested convergence on RMS density matrix=1.00D-08 within 128 cycles.
 Requested convergence on MAX density matrix=1.00D-06.
 Requested convergence on             energy=1.00D-06.
 No special actions if energy rises.
 Integral accuracy reduced to 1.0D-05 until final iterations.
 Initial convergence to 1.0D-05 achieved.  Increase integral accuracy.
 SCF Done:  E(RPBE1PBE) =  -1794.76812244     A.U. after   15 cycles
            NFock= 15  Conv=0.65D-08     -V/T= 2.0035
 DoSCS=F DFT=T ScalE2(SS,OS)=  1.000000  1.000000
 ExpMin= 7.71D-02 ExpMax= 9.34D+04 ExpMxC= 3.17D+03 IAcc=3 IRadAn=         5 AccDes= 0.00D+00
 HarFok:  IExCor=  205 AccDes= 0.00D+00 IRadAn=         5 IDoV=-2 UseB2=F ITyADJ=14
 ICtDFT= 12500011 ScaDFX=  1.000000  1.000000  1.000000  1.000000
 GSVD:  LWork=       -1505 too small for GESVD, short by        6650 words or        6650 for optimal perf.
 Range of M.O.s used for correlation:    36   775
 NBasis=   775 NAE=   103 NBE=   103 NFC=    35 NFV=     0
 NROrb=    740 NOA=    68 NOB=    68 NVA=   672 NVB=   672

 **** Warning!!: The largest alpha MO coefficient is  0.23411559D+02


 **** Warning!!: The smallest alpha delta epsilon is  0.95362836D-01

 Orbital symmetries:
       Occupied  (A) (A) (A) (A) (A) (A) (A) (A) (A) (A) (A) (A)
                 (A) (A) (A) (A) (A) (A) (A) (A) (A) (A) (A) (A)
                 (A) (A) (A) (A) (A) (A) (A) (A) (A) (A) (A) (A)
                 (A) (A) (A) (A) (A) (A) (A) (A) (A) (A) (A) (A)
                 (A) (A) (A) (A) (A) (A) (A) (A) (A) (A) (A) (A)
                 (A) (A) (A) (A) (A) (A) (A) (A) (A) (A) (A) (A)
                 (A) (A) (A) (A) (A) (A) (A) (A) (A) (A) (A) (A)
                 (A) (A) (A) (A) (A) (A) (A) (A) (A) (A) (A) (A)
                 (A) (A) (A) (A) (A) (A) (A)
       Virtual   (A) (A) (A) (A) (A) (A) (A) (A) (A) (A) (A) (A)
                 (A) (A) (A) (A) (A) (A) (A) (A) (A) (A) (A) (A)
                 (A) (A) (A) (A) (A) (A) (A) (A) (A) (A) (A) (A)
                 (A) (A) (A) (A) (A) (A) (A) (A) (A) (A) (A) (A)
                 (A) (A) (A) (A) (A) (A) (A) (A) (A) (A) (A) (A)
                 (A) (A) (A) (A) (A) (A) (A) (A) (A) (A) (A) (A)
                 (A) (A) (A) (A) (A) (A) (A) (A) (A) (A) (A) (A)
                 (A) (A) (A) (A) (A) (A) (A) (A) (A) (A) (A) (A)
                 (A) (A) (A) (A) (A) (A) (A) (A) (A) (A) (A) (A)
                 (A) (A) (A) (A) (A) (A) (A) (A) (A) (A) (A) (A)
                 (A) (A) (A) (A) (A) (A) (A) (A) (A) (A) (A) (A)
                 (A) (A) (A) (A) (A) (A) (A) (A) (A) (A) (A) (A)
                 (A) (A) (A) (A) (A) (A) (A) (A) (A) (A) (A) (A)
                 (A) (A) (A) (A) (A) (A) (A) (A) (A) (A) (A) (A)
                 (A) (A) (A) (A) (A) (A) (A) (A) (A) (A) (A) (A)
                 (A) (A) (A) (A) (A) (A) (A) (A) (A) (A) (A) (A)
                 (A) (A) (A) (A) (A) (A) (A) (A) (A) (A) (A) (A)
                 (A) (A) (A) (A) (A) (A) (A) (A) (A) (A) (A) (A)
                 (A) (A) (A) (A) (A) (A) (A) (A) (A) (A) (A) (A)
                 (A) (A) (A) (A) (A) (A) (A) (A) (A) (A) (A) (A)
                 (A) (A) (A) (A) (A) (A) (A) (A) (A) (A) (A) (A)
                 (A) (A) (A) (A) (A) (A) (A) (A) (A) (A) (A) (A)
                 (A) (A) (A) (A) (A) (A) (A) (A) (A) (A) (A) (A)
                 (A) (A) (A) (A) (A) (A) (A) (A) (A) (A) (A) (A)
                 (A) (A) (A) (A) (A) (A) (A) (A) (A) (A) (A) (A)
                 (A) (A) (A) (A) (A) (A) (A) (A) (A) (A) (A) (A)
                 (A) (A) (A) (A) (A) (A) (A) (A) (A) (A) (A) (A)
                 (A) (A) (A) (A) (A) (A) (A) (A) (A) (A) (A) (A)
                 (A) (A) (A) (A) (A) (A) (A) (A) (A) (A) (A) (A)
                 (A) (A) (A) (A) (A) (A) (A) (A) (A) (A) (A) (A)
                 (A) (A) (A) (A) (A) (A) (A) (A) (A) (A) (A) (A)
                 (A) (A) (A) (A) (A) (A) (A) (A) (A) (A) (A) (A)
                 (A) (A) (A) (A) (A) (A) (A) (A) (A) (A) (A) (A)
                 (A) (A) (A) (A) (A) (A) (A) (A) (A) (A) (A) (A)
                 (A) (A) (A) (A) (A) (A) (A) (A) (A) (A) (A) (A)
                 (A) (A) (A) (A) (A) (A) (A) (A) (A) (A) (A) (A)
                 (A) (A) (A) (A) (A) (A) (A) (A) (A) (A) (A) (A)
                 (A) (A) (A) (A) (A) (A) (A) (A) (A) (A) (A) (A)
                 (A) (A) (A) (A) (A) (A) (A) (A) (A) (A) (A) (A)
                 (A) (A) (A) (A) (A) (A) (A) (A) (A) (A) (A) (A)
                 (A) (A) (A) (A) (A) (A) (A) (A) (A) (A) (A) (A)
                 (A) (A) (A) (A) (A) (A) (A) (A) (A) (A) (A) (A)
                 (A) (A) (A) (A) (A) (A) (A) (A) (A) (A) (A) (A)
                 (A) (A) (A) (A) (A) (A) (A) (A) (A) (A) (A) (A)
                 (A) (A) (A) (A) (A) (A) (A) (A) (A) (A) (A) (A)
                 (A) (A) (A) (A) (A) (A) (A) (A) (A) (A) (A) (A)
                 (A) (A) (A) (A) (A) (A) (A) (A) (A) (A) (A) (A)
                 (A) (A) (A) (A) (A) (A) (A) (A) (A) (A) (A) (A)
                 (A) (A) (A) (A) (A) (A) (A) (A) (A) (A) (A) (A)
                 (A) (A) (A) (A) (A) (A) (A) (A) (A) (A) (A) (A)
                 (A) (A) (A) (A) (A) (A) (A) (A) (A) (A) (A) (A)
                 (A) (A) (A) (A) (A) (A) (A) (A) (A) (A) (A) (A)
                 (A) (A) (A) (A) (A) (A) (A) (A) (A) (A) (A) (A)
                 (A) (A) (A) (A) (A) (A) (A) (A) (A) (A) (A) (A)
                 (A) (A) (A) (A) (A) (A) (A) (A) (A) (A) (A) (A)
                 (A) (A) (A) (A) (A) (A) (A) (A) (A) (A) (A) (A)
    12 initial guesses have been made.
 Convergence on wavefunction:    0.001000000000000
 Iteration     1 Dimension    12 NMult     0 NNew     12
 CISAX will form    12 AO SS matrices at one time.
 Iteration     2 Dimension    18 NMult    12 NNew      6
 Iteration     3 Dimension    24 NMult    18 NNew      6
 Iteration     4 Dimension    30 NMult    24 NNew      6
 Iteration     5 Dimension    36 NMult    30 NNew      6
 Iteration     6 Dimension    40 NMult    36 NNew      4
 Iteration     7 Dimension    44 NMult    40 NNew      4
 Iteration     8 Dimension    46 NMult    44 NNew      2
 ***********************************************************************
 Excited states from <AA,BB:AA,BB> singles matrix:
 ***********************************************************************
 
 Ground to excited state transition densities written to RWF  633
 Ground to excited state transition electric dipole moments (Au):
       state          X           Y           Z        Dip. S.      Osc.
         1        -5.9271      0.2046      0.0005     35.1725      2.1205
         2        -0.6737     -0.2158     -0.0025      0.5005      0.0432
         3        -0.2553     -0.5042      0.0010      0.3194      0.0284
 Ground to excited state transition velocity dipole moments (Au):
       state          X           Y           Z        Dip. S.      Osc.
         1         0.5367     -0.0199     -0.0000      0.2885      2.1266
         2         0.0854      0.0273      0.0003      0.0080      0.0415
         3         0.0346      0.0681     -0.0001      0.0058      0.0292
 Ground to excited state transition magnetic dipole moments (Au):
       state          X           Y           Z
         1        -0.0011      0.0059     -1.4208
         2        -0.0001      0.0002      0.3432
         3        -0.0012     -0.0017     -0.2814
 Ground to excited state transition velocity quadrupole moments (Au):
       state          XX          YY          ZZ          XY          XZ          YZ
         1        -0.1272      0.0756      0.0036     -0.1834     -0.0056      0.0027
         2        -1.8205     -0.1536     -0.0179      0.4446     -0.0013     -0.0001
         3        -0.2261      0.0561      0.0101     -0.4422      0.0011      0.0001
 <0|del|b> * <b|rxdel|0> + <0|del|b> * <b|delr+rdel|0>
 Rotatory Strengths (R) in cgs (10**-40 erg-esu-cm/Gauss)
       state          XX          YY          ZZ    R(velocity)    E-M Angle
         1        -0.6376      3.6508     -8.0228     -1.6699       90.05
         2         0.8158     -0.1346     -0.0636      0.2059       89.79
         3        -0.2483     -0.1563     -0.2281     -0.2109       90.32
 1/2[<0|r|b>*<b|rxdel|0> + (<0|rxdel|b>*<b|r|0>)*]
 Rotatory Strengths (R) in cgs (10**-40 erg-esu-cm/Gauss)
       state          XX          YY          ZZ     R(length)
         1        -4.5395     -0.8475      0.5481     -1.6130
         2        -0.0262      0.0346      0.6009      0.2031
         3        -0.2228     -0.5900      0.1913     -0.2072
  1/2[<0|del|b>*<b|r|0> + (<0|r|b>*<b|del|0>)*] (Au)
       state          X           Y           Z        Dip. S.   Osc.(frdel)
         1        -3.1812     -0.0041     -0.0000      3.1853      2.1235
         2        -0.0576     -0.0059     -0.0000      0.0635      0.0423
         3        -0.0088     -0.0343     -0.0000      0.0432      0.0288

 Excitation energies and oscillator strengths:
 
 Excited State   1:      Singlet-A      2.4608 eV  503.84 nm  f=2.1205  <S**2>=0.000
     103 ->104         0.70965
     103 <-104        -0.12275
 This state for optimization and/or second-order correction.
 Total Energy, E(TD-HF/TD-DFT) =  -1794.67769082    
 Copying the excited state density for this state as the 1-particle RhoCI density.
 
 Excited State   2:      Singlet-A      3.5213 eV  352.10 nm  f=0.0432  <S**2>=0.000
     100 ->104         0.22054
     102 ->104         0.64700
     103 ->105         0.14882
 
 Excited State   3:      Singlet-A      3.6269 eV  341.84 nm  f=0.0284  <S**2>=0.000
     101 ->104         0.69055
 SavETr:  write IOETrn=   770 NScale= 10 NData=  16 NLR=1 NState=    3 LETran=      64.

 **********************************************************************

            Population analysis using the SCF density.

 **********************************************************************

 Orbital symmetries:
       Occupied  (A) (A) (A) (A) (A) (A) (A) (A) (A) (A) (A) (A)
                 (A) (A) (A) (A) (A) (A) (A) (A) (A) (A) (A) (A)
                 (A) (A) (A) (A) (A) (A) (A) (A) (A) (A) (A) (A)
                 (A) (A) (A) (A) (A) (A) (A) (A) (A) (A) (A) (A)
                 (A) (A) (A) (A) (A) (A) (A) (A) (A) (A) (A) (A)
                 (A) (A) (A) (A) (A) (A) (A) (A) (A) (A) (A) (A)
                 (A) (A) (A) (A) (A) (A) (A) (A) (A) (A) (A) (A)
                 (A) (A) (A) (A) (A) (A) (A) (A) (A) (A) (A) (A)
                 (A) (A) (A) (A) (A) (A) (A)
       Virtual   (A) (A) (A) (A) (A) (A) (A) (A) (A) (A) (A) (A)
                 (A) (A) (A) (A) (A) (A) (A) (A) (A) (A) (A) (A)
                 (A) (A) (A) (A) (A) (A) (A) (A) (A) (A) (A) (A)
                 (A) (A) (A) (A) (A) (A) (A) (A) (A) (A) (A) (A)
                 (A) (A) (A) (A) (A) (A) (A) (A) (A) (A) (A) (A)
                 (A) (A) (A) (A) (A) (A) (A) (A) (A) (A) (A) (A)
                 (A) (A) (A) (A) (A) (A) (A) (A) (A) (A) (A) (A)
                 (A) (A) (A) (A) (A) (A) (A) (A) (A) (A) (A) (A)
                 (A) (A) (A) (A) (A) (A) (A) (A) (A) (A) (A) (A)
                 (A) (A) (A) (A) (A) (A) (A) (A) (A) (A) (A) (A)
                 (A) (A) (A) (A) (A) (A) (A) (A) (A) (A) (A) (A)
                 (A) (A) (A) (A) (A) (A) (A) (A) (A) (A) (A) (A)
                 (A) (A) (A) (A) (A) (A) (A) (A) (A) (A) (A) (A)
                 (A) (A) (A) (A) (A) (A) (A) (A) (A) (A) (A) (A)
                 (A) (A) (A) (A) (A) (A) (A) (A) (A) (A) (A) (A)
                 (A) (A) (A) (A) (A) (A) (A) (A) (A) (A) (A) (A)
                 (A) (A) (A) (A) (A) (A) (A) (A) (A) (A) (A) (A)
                 (A) (A) (A) (A) (A) (A) (A) (A) (A) (A) (A) (A)
                 (A) (A) (A) (A) (A) (A) (A) (A) (A) (A) (A) (A)
                 (A) (A) (A) (A) (A) (A) (A) (A) (A) (A) (A) (A)
                 (A) (A) (A) (A) (A) (A) (A) (A) (A) (A) (A) (A)
                 (A) (A) (A) (A) (A) (A) (A) (A) (A) (A) (A) (A)
                 (A) (A) (A) (A) (A) (A) (A) (A) (A) (A) (A) (A)
                 (A) (A) (A) (A) (A) (A) (A) (A) (A) (A) (A) (A)
                 (A) (A) (A) (A) (A) (A) (A) (A) (A) (A) (A) (A)
                 (A) (A) (A) (A) (A) (A) (A) (A) (A) (A) (A) (A)
                 (A) (A) (A) (A) (A) (A) (A) (A) (A) (A) (A) (A)
                 (A) (A) (A) (A) (A) (A) (A) (A) (A) (A) (A) (A)
                 (A) (A) (A) (A) (A) (A) (A) (A) (A) (A) (A) (A)
                 (A) (A) (A) (A) (A) (A) (A) (A) (A) (A) (A) (A)
                 (A) (A) (A) (A) (A) (A) (A) (A) (A) (A) (A) (A)
                 (A) (A) (A) (A) (A) (A) (A) (A) (A) (A) (A) (A)
                 (A) (A) (A) (A) (A) (A) (A) (A) (A) (A) (A) (A)
                 (A) (A) (A) (A) (A) (A) (A) (A) (A) (A) (A) (A)
                 (A) (A) (A) (A) (A) (A) (A) (A) (A) (A) (A) (A)
                 (A) (A) (A) (A) (A) (A) (A) (A) (A) (A) (A) (A)
                 (A) (A) (A) (A) (A) (A) (A) (A) (A) (A) (A) (A)
                 (A) (A) (A) (A) (A) (A) (A) (A) (A) (A) (A) (A)
                 (A) (A) (A) (A) (A) (A) (A) (A) (A) (A) (A) (A)
                 (A) (A) (A) (A) (A) (A) (A) (A) (A) (A) (A) (A)
                 (A) (A) (A) (A) (A) (A) (A) (A) (A) (A) (A) (A)
                 (A) (A) (A) (A) (A) (A) (A) (A) (A) (A) (A) (A)
                 (A) (A) (A) (A) (A) (A) (A) (A) (A) (A) (A) (A)
                 (A) (A) (A) (A) (A) (A) (A) (A) (A) (A) (A) (A)
                 (A) (A) (A) (A) (A) (A) (A) (A) (A) (A) (A) (A)
                 (A) (A) (A) (A) (A) (A) (A) (A) (A) (A) (A) (A)
                 (A) (A) (A) (A) (A) (A) (A) (A) (A) (A) (A) (A)
                 (A) (A) (A) (A) (A) (A) (A) (A) (A) (A) (A) (A)
                 (A) (A) (A) (A) (A) (A) (A) (A) (A) (A) (A) (A)
                 (A) (A) (A) (A) (A) (A) (A) (A) (A) (A) (A) (A)
                 (A) (A) (A) (A) (A) (A) (A) (A) (A) (A) (A) (A)
                 (A) (A) (A) (A) (A) (A) (A) (A) (A) (A) (A) (A)
                 (A) (A) (A) (A) (A) (A) (A) (A) (A) (A) (A) (A)
                 (A) (A) (A) (A) (A) (A) (A) (A) (A) (A) (A) (A)
                 (A) (A) (A) (A) (A) (A) (A) (A) (A) (A) (A) (A)
                 (A) (A) (A) (A) (A) (A) (A) (A) (A) (A) (A) (A)
 The electronic state is 1-A.
 Alpha  occ. eigenvalues --  -89.16341 -89.16228 -14.57155 -14.56948 -10.43823
 Alpha  occ. eigenvalues --  -10.43582 -10.39190 -10.38650 -10.38532 -10.38402
 Alpha  occ. eigenvalues --  -10.37516 -10.37513 -10.35729 -10.35541 -10.34124
 Alpha  occ. eigenvalues --  -10.33616 -10.33574 -10.33449 -10.33442 -10.33436
 Alpha  occ. eigenvalues --  -10.32947 -10.32845 -10.32781 -10.32736 -10.32689
 Alpha  occ. eigenvalues --  -10.32607 -10.32502  -8.14447  -8.14329  -6.08169
 Alpha  occ. eigenvalues --   -6.08066  -6.07834  -6.07727  -6.07334  -6.07193
 Alpha  occ. eigenvalues --   -1.13182  -1.13138  -0.99254  -0.99063  -0.96938
 Alpha  occ. eigenvalues --   -0.95639  -0.94208  -0.92156  -0.90045  -0.89499
 Alpha  occ. eigenvalues --   -0.88830  -0.87345  -0.86635  -0.85128  -0.82057
 Alpha  occ. eigenvalues --   -0.79185  -0.77990  -0.77348  -0.74380  -0.73378
 Alpha  occ. eigenvalues --   -0.72389  -0.71650  -0.69276  -0.68986  -0.67909
 Alpha  occ. eigenvalues --   -0.64317  -0.63358  -0.63080  -0.62521  -0.61330
 Alpha  occ. eigenvalues --   -0.61021  -0.60508  -0.59735  -0.57499  -0.57207
 Alpha  occ. eigenvalues --   -0.56284  -0.55937  -0.55658  -0.54951  -0.54389
 Alpha  occ. eigenvalues --   -0.54346  -0.53025  -0.52690  -0.51933  -0.51471
 Alpha  occ. eigenvalues --   -0.51001  -0.50653  -0.50242  -0.49623  -0.48873
 Alpha  occ. eigenvalues --   -0.48732  -0.48249  -0.47954  -0.47750  -0.46892
 Alpha  occ. eigenvalues --   -0.46684  -0.46340  -0.45408  -0.45324  -0.44872
 Alpha  occ. eigenvalues --   -0.42155  -0.41541  -0.40635  -0.37481  -0.35447
 Alpha  occ. eigenvalues --   -0.35154  -0.34413  -0.29222
 Alpha virt. eigenvalues --   -0.19686  -0.12169  -0.11219  -0.11009  -0.10945
 Alpha virt. eigenvalues --   -0.10934  -0.09763  -0.08833  -0.05722  -0.04879
 Alpha virt. eigenvalues --   -0.04760  -0.04463  -0.03293  -0.03072  -0.02847
 Alpha virt. eigenvalues --   -0.01882  -0.01285  -0.00756  -0.00353   0.00668
 Alpha virt. eigenvalues --    0.00928   0.01118   0.01668   0.02155   0.02223
 Alpha virt. eigenvalues --    0.02414   0.02940   0.03512   0.03867   0.04155
 Alpha virt. eigenvalues --    0.05079   0.05212   0.05676   0.05754   0.06591
 Alpha virt. eigenvalues --    0.06876   0.07343   0.07467   0.07808   0.08316
 Alpha virt. eigenvalues --    0.08859   0.09489   0.09835   0.10300   0.10887
 Alpha virt. eigenvalues --    0.11071   0.11454   0.13599   0.14181   0.14835
 Alpha virt. eigenvalues --    0.15261   0.15440   0.16881   0.17515   0.18787
 Alpha virt. eigenvalues --    0.18799   0.19079   0.19105   0.19361   0.19742
 Alpha virt. eigenvalues --    0.20169   0.20885   0.21131   0.21515   0.22082
 Alpha virt. eigenvalues --    0.23058   0.23224   0.23619   0.24774   0.24901
 Alpha virt. eigenvalues --    0.24963   0.25112   0.26044   0.26198   0.26455
 Alpha virt. eigenvalues --    0.26601   0.26961   0.27443   0.27664   0.27781
 Alpha virt. eigenvalues --    0.28481   0.29415   0.29972   0.30203   0.30724
 Alpha virt. eigenvalues --    0.30875   0.31062   0.31334   0.31353   0.31743
 Alpha virt. eigenvalues --    0.32340   0.32565   0.33508   0.34056   0.34494
 Alpha virt. eigenvalues --    0.34633   0.35154   0.35234   0.35738   0.35987
 Alpha virt. eigenvalues --    0.36254   0.36597   0.37132   0.37524   0.38784
 Alpha virt. eigenvalues --    0.38985   0.39495   0.39894   0.40286   0.41568
 Alpha virt. eigenvalues --    0.42307   0.42345   0.42770   0.42972   0.43580
 Alpha virt. eigenvalues --    0.43642   0.44254   0.44597   0.45620   0.45817
 Alpha virt. eigenvalues --    0.46279   0.46394   0.46873   0.47033   0.47053
 Alpha virt. eigenvalues --    0.47645   0.47801   0.48374   0.48488   0.48635
 Alpha virt. eigenvalues --    0.49001   0.49117   0.49901   0.50149   0.50404
 Alpha virt. eigenvalues --    0.50463   0.51562   0.51780   0.51980   0.52063
 Alpha virt. eigenvalues --    0.52372   0.52527   0.52806   0.53695   0.54761
 Alpha virt. eigenvalues --    0.55173   0.55268   0.55350   0.55907   0.56191
 Alpha virt. eigenvalues --    0.56260   0.56655   0.57361   0.57521   0.58518
 Alpha virt. eigenvalues --    0.58906   0.59163   0.59736   0.59772   0.59925
 Alpha virt. eigenvalues --    0.60626   0.60781   0.60900   0.61486   0.61501
 Alpha virt. eigenvalues --    0.62316   0.62875   0.62935   0.63984   0.64299
 Alpha virt. eigenvalues --    0.64903   0.65088   0.65328   0.65625   0.66116
 Alpha virt. eigenvalues --    0.67019   0.67169   0.68060   0.68201   0.68975
 Alpha virt. eigenvalues --    0.69563   0.69614   0.69822   0.70476   0.70963
 Alpha virt. eigenvalues --    0.71110   0.71305   0.72077   0.72991   0.73361
 Alpha virt. eigenvalues --    0.73429   0.74166   0.74478   0.75107   0.75249
 Alpha virt. eigenvalues --    0.75690   0.76486   0.78328   0.78546   0.78710
 Alpha virt. eigenvalues --    0.79607   0.80117   0.81185   0.81948   0.82319
 Alpha virt. eigenvalues --    0.82680   0.82900   0.83273   0.83931   0.84717
 Alpha virt. eigenvalues --    0.84798   0.85703   0.86939   0.88176   0.88438
 Alpha virt. eigenvalues --    0.89444   0.90072   0.90806   0.91869   0.92616
 Alpha virt. eigenvalues --    0.93000   0.94151   0.94881   0.95105   0.95461
 Alpha virt. eigenvalues --    0.96253   0.96658   0.96666   0.97866   0.98908
 Alpha virt. eigenvalues --    0.99171   0.99817   1.00558   1.00950   1.01933
 Alpha virt. eigenvalues --    1.02343   1.02375   1.02891   1.02898   1.03291
 Alpha virt. eigenvalues --    1.03866   1.04005   1.06345   1.06390   1.06656
 Alpha virt. eigenvalues --    1.06988   1.07296   1.08351   1.08784   1.09541
 Alpha virt. eigenvalues --    1.10043   1.10740   1.11968   1.12092   1.12501
 Alpha virt. eigenvalues --    1.12842   1.13164   1.14364   1.14531   1.14811
 Alpha virt. eigenvalues --    1.15010   1.16641   1.16729   1.16862   1.17658
 Alpha virt. eigenvalues --    1.18098   1.18580   1.18643   1.19274   1.19376
 Alpha virt. eigenvalues --    1.20422   1.21804   1.22139   1.22322   1.24329
 Alpha virt. eigenvalues --    1.24555   1.24812   1.25458   1.25599   1.27501
 Alpha virt. eigenvalues --    1.27936   1.30826   1.31497   1.33211   1.34357
 Alpha virt. eigenvalues --    1.35254   1.36374   1.36433   1.36640   1.37168
 Alpha virt. eigenvalues --    1.38696   1.39364   1.40448   1.40667   1.42043
 Alpha virt. eigenvalues --    1.43079   1.44257   1.45305   1.45664   1.46052
 Alpha virt. eigenvalues --    1.46177   1.46480   1.46890   1.48350   1.48798
 Alpha virt. eigenvalues --    1.49727   1.50771   1.51940   1.52450   1.52669
 Alpha virt. eigenvalues --    1.52871   1.53560   1.54076   1.54146   1.54773
 Alpha virt. eigenvalues --    1.56277   1.57522   1.58802   1.59613   1.60447
 Alpha virt. eigenvalues --    1.60535   1.61595   1.62269   1.62974   1.63657
 Alpha virt. eigenvalues --    1.63712   1.64518   1.66526   1.66979   1.68613
 Alpha virt. eigenvalues --    1.69007   1.70500   1.72417   1.73491   1.73703
 Alpha virt. eigenvalues --    1.75320   1.75577   1.77277   1.77675   1.80836
 Alpha virt. eigenvalues --    1.82381   1.83110   1.83575   1.86014   1.87496
 Alpha virt. eigenvalues --    1.88183   1.90133   1.92635   1.94485   1.94989
 Alpha virt. eigenvalues --    1.95530   1.96084   1.98772   1.99244   1.99421
 Alpha virt. eigenvalues --    2.00146   2.00337   2.00983   2.01742   2.03892
 Alpha virt. eigenvalues --    2.04305   2.05175   2.05498   2.06514   2.06890
 Alpha virt. eigenvalues --    2.09252   2.11076   2.11420   2.12004   2.12327
 Alpha virt. eigenvalues --    2.14929   2.15398   2.16315   2.16392   2.16955
 Alpha virt. eigenvalues --    2.17845   2.18911   2.19326   2.19477   2.20685
 Alpha virt. eigenvalues --    2.21887   2.23567   2.24387   2.25095   2.25359
 Alpha virt. eigenvalues --    2.27084   2.28150   2.28624   2.32138   2.33713
 Alpha virt. eigenvalues --    2.35382   2.35477   2.35548   2.36105   2.36954
 Alpha virt. eigenvalues --    2.39636   2.40618   2.41470   2.44581   2.44989
 Alpha virt. eigenvalues --    2.45023   2.45477   2.47123   2.48089   2.48234
 Alpha virt. eigenvalues --    2.48635   2.49788   2.51391   2.51418   2.52202
 Alpha virt. eigenvalues --    2.52522   2.53573   2.54269   2.55102   2.55653
 Alpha virt. eigenvalues --    2.56179   2.57872   2.58183   2.58330   2.58957
 Alpha virt. eigenvalues --    2.60059   2.60807   2.61128   2.61575   2.61757
 Alpha virt. eigenvalues --    2.62750   2.63113   2.63573   2.63859   2.67173
 Alpha virt. eigenvalues --    2.67587   2.68791   2.69101   2.71265   2.72355
 Alpha virt. eigenvalues --    2.72912   2.73241   2.73308   2.73718   2.74865
 Alpha virt. eigenvalues --    2.76854   2.77086   2.78648   2.80501   2.80718
 Alpha virt. eigenvalues --    2.82005   2.85420   2.86386   2.88158   2.88424
 Alpha virt. eigenvalues --    2.89849   2.92264   2.93418   2.97176   2.97952
 Alpha virt. eigenvalues --    2.98203   2.98893   2.99248   3.01015   3.01220
 Alpha virt. eigenvalues --    3.02050   3.02276   3.02501   3.02685   3.03847
 Alpha virt. eigenvalues --    3.04379   3.05428   3.06729   3.08832   3.09292
 Alpha virt. eigenvalues --    3.10101   3.10907   3.11426   3.11630   3.12176
 Alpha virt. eigenvalues --    3.12968   3.13530   3.14480   3.14730   3.15302
 Alpha virt. eigenvalues --    3.15841   3.16257   3.17639   3.18165   3.19017
 Alpha virt. eigenvalues --    3.19390   3.19644   3.20169   3.20682   3.21169
 Alpha virt. eigenvalues --    3.21682   3.22319   3.22834   3.24048   3.24504
 Alpha virt. eigenvalues --    3.24900   3.25271   3.26529   3.27706   3.28935
 Alpha virt. eigenvalues --    3.29437   3.29530   3.29795   3.30599   3.30928
 Alpha virt. eigenvalues --    3.31730   3.31959   3.32720   3.33771   3.34671
 Alpha virt. eigenvalues --    3.34748   3.34814   3.36393   3.36476   3.36798
 Alpha virt. eigenvalues --    3.37582   3.38307   3.38855   3.38947   3.40213
 Alpha virt. eigenvalues --    3.41058   3.41299   3.42277   3.42401   3.42870
 Alpha virt. eigenvalues --    3.43226   3.43825   3.44241   3.44315   3.45424
 Alpha virt. eigenvalues --    3.46167   3.47283   3.47755   3.48658   3.48894
 Alpha virt. eigenvalues --    3.49337   3.49623   3.49743   3.49974   3.50397
 Alpha virt. eigenvalues --    3.50710   3.51892   3.52194   3.53293   3.53934
 Alpha virt. eigenvalues --    3.54045   3.55483   3.56240   3.57029   3.57682
 Alpha virt. eigenvalues --    3.58397   3.58624   3.58856   3.59728   3.60206
 Alpha virt. eigenvalues --    3.61935   3.62465   3.62956   3.64795   3.65588
 Alpha virt. eigenvalues --    3.65825   3.66313   3.66887   3.67555   3.67820
 Alpha virt. eigenvalues --    3.68002   3.69644   3.71753   3.72558   3.74620
 Alpha virt. eigenvalues --    3.76166   3.76434   3.78783   3.80835   3.80900
 Alpha virt. eigenvalues --    3.81339   3.82028   3.83287   3.84019   3.85055
 Alpha virt. eigenvalues --    3.87469   3.88122   3.88210   3.89320   3.89905
 Alpha virt. eigenvalues --    3.91454   3.92216   3.94592   3.95182   3.97125
 Alpha virt. eigenvalues --    3.98049   3.98434   4.01385   4.04003   4.05675
 Alpha virt. eigenvalues --    4.10064   4.12037   4.12235   4.12600   4.13983
 Alpha virt. eigenvalues --    4.14327   4.15285   4.15442   4.28210   4.29071
 Alpha virt. eigenvalues --    4.32795   4.33139   4.35958   4.38495   4.39542
 Alpha virt. eigenvalues --    4.42607   4.46578   4.51692   4.52184   4.54428
 Alpha virt. eigenvalues --    4.63657   4.64218   4.68891   4.69684   4.71839
 Alpha virt. eigenvalues --    4.91247   4.94030   4.98314   5.01093   5.03975
 Alpha virt. eigenvalues --    5.10274   5.12355   5.13876   5.14941   5.20663
 Alpha virt. eigenvalues --    5.21037   5.32524   5.38140   5.51087   5.52675
 Alpha virt. eigenvalues --    5.74919   5.76775   8.03941   8.04967  17.21477
 Alpha virt. eigenvalues --   17.21600  17.65386  17.67665  17.72052  17.72872
 Alpha virt. eigenvalues --   23.56151  23.57163  23.81856  23.84646  23.90254
 Alpha virt. eigenvalues --   23.91453  23.92340  23.97435  23.97754  23.98469
 Alpha virt. eigenvalues --   23.98683  23.99616  24.00309  24.03447  24.05014
 Alpha virt. eigenvalues --   24.06279  24.08367  24.08582  24.08636  24.11246
 Alpha virt. eigenvalues --   24.12148  24.15028  24.15254  35.63414  35.63687
 Alpha virt. eigenvalues --  189.35891 189.36683
          Condensed to atoms (all electrons):
               1          2          3          4          5          6
     1  C    4.762416   0.516563  -0.027874  -0.020816  -0.026962   0.517828
     2  C    0.516563   4.903925   0.501403  -0.021243  -0.027717  -0.018757
     3  C   -0.027874   0.501403   4.766961   0.501726  -0.016155  -0.029720
     4  C   -0.020816  -0.021243   0.501726   4.760309   0.518510  -0.017036
     5  C   -0.026962  -0.027717  -0.016155   0.518510   4.876927   0.457657
     6  C    0.517828  -0.018757  -0.029720  -0.017036   0.457657   4.699784
     7  N    0.002572   0.001773  -0.000279   0.002113  -0.032834   0.350995
     8  C   -0.020903   0.002617  -0.000197  -0.000279   0.000821  -0.064246
     9  S    0.328530  -0.040611   0.001239   0.002359   0.000244  -0.100856
    10  C   -0.000000   0.000000  -0.000000  -0.000000  -0.000000   0.000000
    11  S   -0.000000   0.000000   0.000000  -0.000000  -0.000000   0.000000
    12  C   -0.000000   0.000000   0.000000   0.000000  -0.000000  -0.000000
    13  C   -0.000000   0.000000   0.000000  -0.000000  -0.000000   0.000000
    14  N   -0.000000  -0.000000   0.000000  -0.000000   0.000000   0.000000
    15  C    0.001750   0.000097  -0.000092  -0.000266   0.000849  -0.077818
    16  C   -0.000014  -0.000002   0.000001  -0.000000   0.000077   0.003157
    17  C    0.000000  -0.000000   0.000000  -0.000000  -0.000000  -0.000000
    18  C    0.000000   0.000000  -0.000000   0.000000  -0.000000  -0.000000
    19  C   -0.000000   0.000000   0.000000   0.000000   0.000000   0.000000
    20  C   -0.000000   0.000000   0.000000   0.000000   0.000000   0.000000
    21  C    0.000000   0.000000   0.000000   0.000000   0.000000  -0.000000
    22  C   -0.000000   0.000000   0.000000   0.000000   0.000000   0.000000
    23  C    0.000000  -0.000000  -0.000000   0.000000   0.000000  -0.000000
    24  C   -0.000000   0.000000  -0.000000  -0.000000  -0.000000   0.000000
    25  C   -0.002230   0.000154  -0.000005  -0.000002   0.000028  -0.003594
    26  C   -0.000301  -0.000004   0.000000  -0.000000   0.000005   0.000234
    27  C   -0.000040   0.000000   0.000000  -0.000000  -0.000000   0.000017
    28  H   -0.043328   0.419556  -0.035281   0.004247  -0.000102   0.006283
    29  H    0.005007  -0.042917   0.420197  -0.037921   0.005422  -0.000275
    30  H    0.000038   0.005106  -0.038630   0.419794  -0.042634   0.005696
    31  H    0.003279  -0.000336   0.005627  -0.030020   0.428494  -0.061178
    32  H   -0.000224  -0.000036  -0.000041   0.000108   0.003465  -0.004436
    33  H   -0.000224  -0.000037  -0.000043   0.000118   0.003486  -0.004647
    34  H    0.000008   0.000000  -0.000000  -0.000001   0.000027  -0.000186
    35  H   -0.000013  -0.000000  -0.000000   0.000000  -0.000016  -0.000098
    36  H   -0.000013  -0.000000  -0.000000   0.000000  -0.000016  -0.000110
    37  H   -0.000000   0.000000  -0.000000  -0.000000   0.000000   0.000000
    38  H   -0.000000   0.000000  -0.000000  -0.000000   0.000000   0.000000
    39  H   -0.000000  -0.000000  -0.000000  -0.000000   0.000000   0.000000
    40  H    0.000000  -0.000000  -0.000000   0.000000  -0.000000  -0.000000
    41  H    0.000000  -0.000000  -0.000000   0.000000  -0.000000  -0.000000
    42  H   -0.000000   0.000000   0.000000   0.000000   0.000000   0.000000
    43  H   -0.000000   0.000000   0.000000   0.000000   0.000000   0.000000
    44  H    0.000000  -0.000000   0.000000   0.000000   0.000000   0.000000
    45  H   -0.000000   0.000000   0.000000  -0.000000   0.000000   0.000000
    46  H    0.000001   0.000000  -0.000000   0.000000   0.000000  -0.000000
    47  H    0.000000   0.000000  -0.000000   0.000000   0.000000  -0.000000
    48  H   -0.000000   0.000007  -0.000001   0.000000  -0.000039  -0.001042
    49  H    0.000018  -0.000019   0.000000  -0.000000   0.000001  -0.000044
    50  H    0.000001   0.000000   0.000000  -0.000000   0.000000   0.000001
               7          8          9         10         11         12
     1  C    0.002572  -0.020903   0.328530  -0.000000  -0.000000  -0.000000
     2  C    0.001773   0.002617  -0.040611   0.000000   0.000000   0.000000
     3  C   -0.000279  -0.000197   0.001239  -0.000000   0.000000   0.000000
     4  C    0.002113  -0.000279   0.002359  -0.000000  -0.000000   0.000000
     5  C   -0.032834   0.000821   0.000244  -0.000000  -0.000000  -0.000000
     6  C    0.350995  -0.064246  -0.100856   0.000000   0.000000  -0.000000
     7  N    6.413901   0.462429   0.024071  -0.000000   0.000000  -0.000000
     8  C    0.462429   4.638468   0.264290  -0.000000   0.000000  -0.000000
     9  S    0.024071   0.264290  15.399115   0.000001   0.000000  -0.000000
    10  C   -0.000000  -0.000000   0.000001   4.741869   0.281735  -0.022234
    11  S    0.000000   0.000000   0.000000   0.281735  15.355679   0.333668
    12  C   -0.000000  -0.000000  -0.000000  -0.022234   0.333668   4.770821
    13  C   -0.000000  -0.000000   0.000000  -0.067119  -0.089591   0.506429
    14  N    0.000000   0.000000   0.000000   0.454239   0.016756   0.004363
    15  C    0.333629  -0.058306   0.006651   0.000000  -0.000000   0.000000
    16  C   -0.010769  -0.008296  -0.000077  -0.000000   0.000000  -0.000000
    17  C    0.000000  -0.000000   0.000000  -0.061307   0.005974   0.001351
    18  C    0.000000   0.000000  -0.000000   0.004090  -0.000285  -0.000922
    19  C    0.000000   0.000000   0.000000   0.002039  -0.036316   0.519423
    20  C    0.000000  -0.000000   0.000000  -0.000118   0.001235  -0.028992
    21  C   -0.000000  -0.000000  -0.000000  -0.000555   0.002511  -0.024207
    22  C   -0.000000  -0.000000   0.000000  -0.001171   0.000981  -0.029391
    23  C    0.000002   0.000049  -0.000180  -0.026189   0.003163  -0.000242
    24  C   -0.000000  -0.000006   0.000010   0.436873  -0.027315  -0.009706
    25  C   -0.005712   0.481574  -0.032182   0.000004  -0.000001  -0.000000
    26  C   -0.000831  -0.004353  -0.006584  -0.000438   0.000028  -0.000000
    27  C   -0.000032  -0.009250   0.004318  -0.003187   0.000069  -0.000003
    28  H   -0.000194   0.000013  -0.005681   0.000000   0.000000  -0.000000
    29  H    0.000016   0.000008  -0.000228   0.000000   0.000000   0.000000
    30  H   -0.000056   0.000014   0.000097  -0.000000  -0.000000   0.000000
    31  H   -0.004932  -0.000411  -0.000625   0.000000   0.000000  -0.000000
    32  H   -0.031628   0.002048  -0.000236   0.000000  -0.000000   0.000000
    33  H   -0.031496   0.001984  -0.000241   0.000000  -0.000000   0.000000
    34  H    0.002754  -0.000387   0.000063   0.000000   0.000000   0.000000
    35  H   -0.000818   0.002051  -0.000287  -0.000000   0.000000   0.000000
    36  H   -0.000812   0.001856  -0.000282  -0.000000  -0.000000   0.000000
    37  H   -0.000000   0.000000  -0.000001  -0.005160  -0.000089   0.000177
    38  H   -0.000000   0.000000  -0.000001  -0.004619  -0.000118   0.000172
    39  H    0.000000   0.000000  -0.000000  -0.000224   0.000038   0.000026
    40  H    0.000000   0.000000  -0.000000  -0.000165  -0.000021  -0.000047
    41  H    0.000000   0.000000  -0.000000  -0.000138  -0.000025  -0.000045
    42  H    0.000000   0.000000   0.000000   0.000044  -0.006277  -0.043291
    43  H    0.000000   0.000000   0.000000   0.000008  -0.000242   0.005160
    44  H   -0.000000   0.000000  -0.000000   0.000012   0.000091   0.000001
    45  H    0.000000  -0.000000   0.000000  -0.000349  -0.000569   0.003732
    46  H    0.000000   0.000054  -0.000124  -0.002357  -0.000376   0.000000
    47  H    0.000000   0.000002  -0.000000  -0.051724  -0.010613  -0.000159
    48  H   -0.000290  -0.058577   0.006547   0.000001  -0.000000  -0.000000
    49  H    0.000236  -0.003081   0.003477   0.000001   0.000000   0.000000
    50  H   -0.000001   0.000481   0.000002   0.000790  -0.000045   0.000001
              13         14         15         16         17         18
     1  C   -0.000000  -0.000000   0.001750  -0.000014   0.000000   0.000000
     2  C    0.000000  -0.000000   0.000097  -0.000002  -0.000000   0.000000
     3  C    0.000000   0.000000  -0.000092   0.000001   0.000000  -0.000000
     4  C   -0.000000  -0.000000  -0.000266  -0.000000  -0.000000   0.000000
     5  C   -0.000000   0.000000   0.000849   0.000077  -0.000000  -0.000000
     6  C    0.000000   0.000000  -0.077818   0.003157  -0.000000  -0.000000
     7  N   -0.000000   0.000000   0.333629  -0.010769   0.000000   0.000000
     8  C   -0.000000   0.000000  -0.058306  -0.008296  -0.000000   0.000000
     9  S    0.000000   0.000000   0.006651  -0.000077   0.000000  -0.000000
    10  C   -0.067119   0.454239   0.000000  -0.000000  -0.061307   0.004090
    11  S   -0.089591   0.016756  -0.000000   0.000000   0.005974  -0.000285
    12  C    0.506429   0.004363   0.000000  -0.000000   0.001351  -0.000922
    13  C    4.700500   0.350408  -0.000000  -0.000000  -0.059259  -0.009919
    14  N    0.350408   6.404734  -0.000000  -0.000000   0.338275  -0.010791
    15  C   -0.000000  -0.000000   4.767851   0.391375   0.000000   0.000000
    16  C   -0.000000  -0.000000   0.391375   4.794709   0.000000   0.000000
    17  C   -0.059259   0.338275   0.000000   0.000000   4.797965   0.377946
    18  C   -0.009919  -0.010791   0.000000   0.000000   0.377946   4.790378
    19  C   -0.017650   0.001630   0.000000  -0.000000   0.000048  -0.000023
    20  C   -0.026027  -0.000167  -0.000000   0.000000  -0.000056   0.000012
    21  C   -0.020707   0.002112   0.000000   0.000000   0.000332  -0.000103
    22  C    0.474763  -0.017186   0.000000  -0.000000   0.006872  -0.004655
    23  C    0.000581  -0.007734   0.000000  -0.000001  -0.009905   0.000353
    24  C    0.002323  -0.016731  -0.000000   0.000000  -0.000784  -0.000310
    25  C    0.000000  -0.000000   0.006456  -0.009220  -0.000001   0.000000
    26  C   -0.000000  -0.000000  -0.000471   0.000152  -0.000027   0.000001
    27  C    0.000000   0.000155   0.000009  -0.000055  -0.000037  -0.000007
    28  H    0.000000   0.000000   0.000013  -0.000000  -0.000000  -0.000000
    29  H    0.000000  -0.000000  -0.000001  -0.000000   0.000000  -0.000000
    30  H   -0.000000  -0.000000  -0.000018  -0.000001   0.000000   0.000000
    31  H    0.000000   0.000000   0.003041   0.000390  -0.000000  -0.000000
    32  H    0.000000  -0.000000   0.394993  -0.024337  -0.000000  -0.000000
    33  H    0.000000  -0.000000   0.395082  -0.024436  -0.000000  -0.000000
    34  H    0.000000  -0.000000  -0.022372   0.397714   0.000000   0.000000
    35  H   -0.000000  -0.000000  -0.030178   0.406739  -0.000000  -0.000000
    36  H   -0.000000  -0.000000  -0.030087   0.406620  -0.000000   0.000000
    37  H    0.002392  -0.033139  -0.000000   0.000000   0.395869  -0.023891
    38  H    0.002502  -0.033501  -0.000000  -0.000000   0.395695  -0.023888
    39  H   -0.000225   0.002745   0.000000  -0.000000  -0.024257   0.398779
    40  H    0.001404  -0.000800   0.000000  -0.000000  -0.029898   0.408456
    41  H    0.001760  -0.000799   0.000000  -0.000000  -0.030058   0.408636
    42  H    0.006308  -0.000208  -0.000000   0.000000   0.000009  -0.000000
    43  H   -0.000387   0.000013   0.000000  -0.000000  -0.000000   0.000000
    44  H    0.005516  -0.000044   0.000000  -0.000000  -0.000004   0.000004
    45  H   -0.061613  -0.002296  -0.000000  -0.000000  -0.001312   0.001631
    46  H    0.000063  -0.000565   0.000000  -0.000000   0.000664   0.001201
    47  H    0.000338   0.002865   0.000000   0.000000  -0.000330   0.000022
    48  H    0.000000   0.000000  -0.000717   0.003738   0.000000   0.000000
    49  H    0.000000   0.000005  -0.000024  -0.000018  -0.000041  -0.000000
    50  H   -0.000000   0.000004  -0.000006  -0.000027  -0.000023   0.000001
              19         20         21         22         23         24
     1  C   -0.000000  -0.000000   0.000000  -0.000000   0.000000  -0.000000
     2  C    0.000000   0.000000   0.000000   0.000000  -0.000000   0.000000
     3  C    0.000000   0.000000   0.000000   0.000000  -0.000000  -0.000000
     4  C    0.000000   0.000000   0.000000   0.000000   0.000000  -0.000000
     5  C    0.000000   0.000000   0.000000   0.000000   0.000000  -0.000000
     6  C    0.000000   0.000000  -0.000000   0.000000  -0.000000   0.000000
     7  N    0.000000   0.000000  -0.000000  -0.000000   0.000002  -0.000000
     8  C    0.000000  -0.000000  -0.000000  -0.000000   0.000049  -0.000006
     9  S    0.000000   0.000000  -0.000000   0.000000  -0.000180   0.000010
    10  C    0.002039  -0.000118  -0.000555  -0.001171  -0.026189   0.436873
    11  S   -0.036316   0.001235   0.002511   0.000981   0.003163  -0.027315
    12  C    0.519423  -0.028992  -0.024207  -0.029391  -0.000242  -0.009706
    13  C   -0.017650  -0.026027  -0.020707   0.474763   0.000581   0.002323
    14  N    0.001630  -0.000167   0.002112  -0.017186  -0.007734  -0.016731
    15  C    0.000000  -0.000000   0.000000   0.000000   0.000000  -0.000000
    16  C   -0.000000   0.000000   0.000000  -0.000000  -0.000001   0.000000
    17  C    0.000048  -0.000056   0.000332   0.006872  -0.009905  -0.000784
    18  C   -0.000023   0.000012  -0.000103  -0.004655   0.000353  -0.000310
    19  C    4.891370   0.504801  -0.020907  -0.025504   0.000002   0.000191
    20  C    0.504801   4.761600   0.498750  -0.017416   0.000000   0.000001
    21  C   -0.020907   0.498750   4.765967   0.523952  -0.000000  -0.000020
    22  C   -0.025504  -0.017416   0.523952   4.824592  -0.000005   0.000091
    23  C    0.000002   0.000000  -0.000000  -0.000005   4.828222   0.448615
    24  C    0.000191   0.000001  -0.000020   0.000091   0.448615   5.023105
    25  C   -0.000000   0.000000  -0.000000   0.000000  -0.006157   0.000072
    26  C    0.000000   0.000000  -0.000000  -0.000000   0.014425  -0.008177
    27  C    0.000000   0.000000   0.000000  -0.000000   0.477118  -0.012880
    28  H    0.000000   0.000000  -0.000000   0.000000  -0.000000   0.000000
    29  H    0.000000   0.000000   0.000000   0.000000  -0.000000   0.000000
    30  H    0.000000   0.000000   0.000000   0.000000   0.000000  -0.000000
    31  H    0.000000   0.000000   0.000000   0.000000  -0.000000   0.000000
    32  H    0.000000  -0.000000  -0.000000   0.000000  -0.000000   0.000000
    33  H    0.000000  -0.000000  -0.000000   0.000000  -0.000000   0.000000
    34  H    0.000000   0.000000  -0.000000   0.000000   0.000000   0.000000
    35  H   -0.000000  -0.000000   0.000000  -0.000000  -0.000002   0.000000
    36  H   -0.000000  -0.000000   0.000000  -0.000000  -0.000002   0.000000
    37  H    0.000006  -0.000002   0.000010  -0.000249   0.000285   0.002559
    38  H    0.000005  -0.000002   0.000005  -0.000291   0.000142   0.002234
    39  H    0.000000   0.000001  -0.000026   0.000651   0.000030   0.000059
    40  H   -0.000010  -0.000010   0.000376  -0.003502  -0.000029  -0.000008
    41  H   -0.000013  -0.000008   0.000300  -0.003344  -0.000029  -0.000011
    42  H    0.419277  -0.035688   0.004463  -0.000243   0.000001   0.000023
    43  H   -0.043109   0.421448  -0.038754   0.005621   0.000000   0.000000
    44  H    0.005224  -0.038293   0.420222  -0.043242  -0.000000   0.000000
    45  H   -0.000235   0.005057  -0.026352   0.420690   0.000001   0.000007
    46  H   -0.000000   0.000000  -0.000000  -0.000001   0.394071  -0.050841
    47  H   -0.000044   0.000002  -0.000001   0.000015  -0.048730   0.420065
    48  H   -0.000000   0.000000  -0.000000   0.000000   0.000470   0.000009
    49  H   -0.000000   0.000000  -0.000000   0.000000  -0.001359   0.000796
    50  H   -0.000000  -0.000000   0.000000   0.000000  -0.059647   0.001378
              25         26         27         28         29         30
     1  C   -0.002230  -0.000301  -0.000040  -0.043328   0.005007   0.000038
     2  C    0.000154  -0.000004   0.000000   0.419556  -0.042917   0.005106
     3  C   -0.000005   0.000000   0.000000  -0.035281   0.420197  -0.038630
     4  C   -0.000002  -0.000000  -0.000000   0.004247  -0.037921   0.419794
     5  C    0.000028   0.000005  -0.000000  -0.000102   0.005422  -0.042634
     6  C   -0.003594   0.000234   0.000017   0.006283  -0.000275   0.005696
     7  N   -0.005712  -0.000831  -0.000032  -0.000194   0.000016  -0.000056
     8  C    0.481574  -0.004353  -0.009250   0.000013   0.000008   0.000014
     9  S   -0.032182  -0.006584   0.004318  -0.005681  -0.000228   0.000097
    10  C    0.000004  -0.000438  -0.003187   0.000000   0.000000  -0.000000
    11  S   -0.000001   0.000028   0.000069   0.000000   0.000000  -0.000000
    12  C   -0.000000  -0.000000  -0.000003  -0.000000   0.000000   0.000000
    13  C    0.000000  -0.000000   0.000000   0.000000   0.000000  -0.000000
    14  N   -0.000000  -0.000000   0.000155   0.000000  -0.000000  -0.000000
    15  C    0.006456  -0.000471   0.000009   0.000013  -0.000001  -0.000018
    16  C   -0.009220   0.000152  -0.000055  -0.000000  -0.000000  -0.000001
    17  C   -0.000001  -0.000027  -0.000037  -0.000000   0.000000   0.000000
    18  C    0.000000   0.000001  -0.000007  -0.000000  -0.000000   0.000000
    19  C   -0.000000   0.000000   0.000000   0.000000   0.000000   0.000000
    20  C    0.000000   0.000000   0.000000   0.000000   0.000000   0.000000
    21  C   -0.000000  -0.000000   0.000000  -0.000000   0.000000   0.000000
    22  C    0.000000  -0.000000  -0.000000   0.000000   0.000000   0.000000
    23  C   -0.006157   0.014425   0.477118  -0.000000  -0.000000   0.000000
    24  C    0.000072  -0.008177  -0.012880   0.000000   0.000000  -0.000000
    25  C    5.001554   0.466397  -0.001716  -0.000011   0.000000   0.000000
    26  C    0.466397   4.818919   0.431327   0.000004  -0.000000  -0.000000
    27  C   -0.001716   0.431327   4.858706   0.000000   0.000000  -0.000000
    28  H   -0.000011   0.000004   0.000000   0.561117  -0.006687  -0.000265
    29  H    0.000000  -0.000000   0.000000  -0.006687   0.564927  -0.006830
    30  H    0.000000  -0.000000  -0.000000  -0.000265  -0.006830   0.567677
    31  H   -0.000013   0.000001   0.000000   0.000063  -0.000228  -0.007805
    32  H   -0.000138   0.000038  -0.000002   0.000000   0.000000   0.000003
    33  H   -0.000113   0.000041  -0.000002   0.000000   0.000000   0.000003
    34  H    0.000743  -0.000036   0.000003   0.000000  -0.000000  -0.000000
    35  H   -0.003468   0.000433  -0.000039  -0.000000   0.000000   0.000000
    36  H   -0.003548   0.000487  -0.000045  -0.000000   0.000000   0.000000
    37  H    0.000001  -0.000098   0.000114   0.000000   0.000000   0.000000
    38  H    0.000001  -0.000098   0.000148   0.000000   0.000000   0.000000
    39  H   -0.000000   0.000000  -0.000004  -0.000000   0.000000  -0.000000
    40  H   -0.000000  -0.000000   0.000000  -0.000000  -0.000000   0.000000
    41  H   -0.000000  -0.000000   0.000000  -0.000000  -0.000000   0.000000
    42  H    0.000000   0.000000  -0.000000   0.000000   0.000000   0.000000
    43  H   -0.000000   0.000000   0.000000   0.000000   0.000000   0.000000
    44  H   -0.000000  -0.000000   0.000000  -0.000000   0.000000   0.000000
    45  H    0.000000   0.000000  -0.000000   0.000000   0.000000  -0.000000
    46  H    0.000404  -0.000689  -0.034721  -0.000000  -0.000000   0.000000
    47  H   -0.000002   0.000311  -0.002203  -0.000000  -0.000000   0.000000
    48  H    0.409252  -0.035667   0.000994   0.000000   0.000000   0.000000
    49  H   -0.054020   0.398889  -0.038969   0.000001  -0.000000   0.000000
    50  H   -0.000163  -0.056610   0.427053  -0.000000  -0.000000  -0.000000
              31         32         33         34         35         36
     1  C    0.003279  -0.000224  -0.000224   0.000008  -0.000013  -0.000013
     2  C   -0.000336  -0.000036  -0.000037   0.000000  -0.000000  -0.000000
     3  C    0.005627  -0.000041  -0.000043  -0.000000  -0.000000  -0.000000
     4  C   -0.030020   0.000108   0.000118  -0.000001   0.000000   0.000000
     5  C    0.428494   0.003465   0.003486   0.000027  -0.000016  -0.000016
     6  C   -0.061178  -0.004436  -0.004647  -0.000186  -0.000098  -0.000110
     7  N   -0.004932  -0.031628  -0.031496   0.002754  -0.000818  -0.000812
     8  C   -0.000411   0.002048   0.001984  -0.000387   0.002051   0.001856
     9  S   -0.000625  -0.000236  -0.000241   0.000063  -0.000287  -0.000282
    10  C    0.000000   0.000000   0.000000   0.000000  -0.000000  -0.000000
    11  S    0.000000  -0.000000  -0.000000   0.000000   0.000000  -0.000000
    12  C   -0.000000   0.000000   0.000000   0.000000   0.000000   0.000000
    13  C    0.000000   0.000000   0.000000   0.000000  -0.000000  -0.000000
    14  N    0.000000  -0.000000  -0.000000  -0.000000  -0.000000  -0.000000
    15  C    0.003041   0.394993   0.395082  -0.022372  -0.030178  -0.030087
    16  C    0.000390  -0.024337  -0.024436   0.397714   0.406739   0.406620
    17  C   -0.000000  -0.000000  -0.000000   0.000000  -0.000000  -0.000000
    18  C   -0.000000  -0.000000  -0.000000   0.000000  -0.000000   0.000000
    19  C    0.000000   0.000000   0.000000   0.000000  -0.000000  -0.000000
    20  C    0.000000  -0.000000  -0.000000   0.000000  -0.000000  -0.000000
    21  C    0.000000  -0.000000  -0.000000  -0.000000   0.000000   0.000000
    22  C    0.000000   0.000000   0.000000   0.000000  -0.000000  -0.000000
    23  C   -0.000000  -0.000000  -0.000000   0.000000  -0.000002  -0.000002
    24  C    0.000000   0.000000   0.000000   0.000000   0.000000   0.000000
    25  C   -0.000013  -0.000138  -0.000113   0.000743  -0.003468  -0.003548
    26  C    0.000001   0.000038   0.000041  -0.000036   0.000433   0.000487
    27  C    0.000000  -0.000002  -0.000002   0.000003  -0.000039  -0.000045
    28  H    0.000063   0.000000   0.000000   0.000000  -0.000000  -0.000000
    29  H   -0.000228   0.000000   0.000000  -0.000000   0.000000   0.000000
    30  H   -0.007805   0.000003   0.000003  -0.000000   0.000000   0.000000
    31  H    0.569004  -0.000443  -0.000496   0.000039  -0.000018  -0.000019
    32  H   -0.000443   0.575741  -0.047284  -0.004380   0.006677  -0.006511
    33  H   -0.000496  -0.047284   0.575921  -0.004574  -0.006466   0.006668
    34  H    0.000039  -0.004380  -0.004574   0.531762  -0.021432  -0.021557
    35  H   -0.000018   0.006677  -0.006466  -0.021432   0.542717  -0.033484
    36  H   -0.000019  -0.006511   0.006668  -0.021557  -0.033484   0.543308
    37  H    0.000000  -0.000000   0.000000  -0.000000   0.000000  -0.000000
    38  H    0.000000   0.000000  -0.000000  -0.000000  -0.000000   0.000000
    39  H    0.000000   0.000000  -0.000000  -0.000000  -0.000000  -0.000000
    40  H   -0.000000  -0.000000   0.000000   0.000000   0.000000  -0.000000
    41  H   -0.000000   0.000000  -0.000000   0.000000  -0.000000   0.000000
    42  H    0.000000  -0.000000  -0.000000   0.000000   0.000000   0.000000
    43  H    0.000000  -0.000000   0.000000  -0.000000  -0.000000  -0.000000
    44  H    0.000000   0.000000  -0.000000  -0.000000   0.000000   0.000000
    45  H    0.000000  -0.000000   0.000000   0.000000  -0.000000  -0.000000
    46  H   -0.000000  -0.000000  -0.000000   0.000000  -0.000000  -0.000000
    47  H   -0.000000  -0.000000  -0.000000  -0.000000   0.000000   0.000000
    48  H   -0.000011  -0.000037  -0.000012   0.000422   0.000196   0.000468
    49  H    0.000000  -0.000000  -0.000000   0.000002  -0.000018  -0.000017
    50  H    0.000000  -0.000000  -0.000000   0.000006  -0.000024  -0.000027
              37         38         39         40         41         42
     1  C   -0.000000  -0.000000  -0.000000   0.000000   0.000000  -0.000000
     2  C    0.000000   0.000000  -0.000000  -0.000000  -0.000000   0.000000
     3  C   -0.000000  -0.000000  -0.000000  -0.000000  -0.000000   0.000000
     4  C   -0.000000  -0.000000  -0.000000   0.000000   0.000000   0.000000
     5  C    0.000000   0.000000   0.000000  -0.000000  -0.000000   0.000000
     6  C    0.000000   0.000000   0.000000  -0.000000  -0.000000   0.000000
     7  N   -0.000000  -0.000000   0.000000   0.000000   0.000000   0.000000
     8  C    0.000000   0.000000   0.000000   0.000000   0.000000   0.000000
     9  S   -0.000001  -0.000001  -0.000000  -0.000000  -0.000000   0.000000
    10  C   -0.005160  -0.004619  -0.000224  -0.000165  -0.000138   0.000044
    11  S   -0.000089  -0.000118   0.000038  -0.000021  -0.000025  -0.006277
    12  C    0.000177   0.000172   0.000026  -0.000047  -0.000045  -0.043291
    13  C    0.002392   0.002502  -0.000225   0.001404   0.001760   0.006308
    14  N   -0.033139  -0.033501   0.002745  -0.000800  -0.000799  -0.000208
    15  C   -0.000000  -0.000000   0.000000   0.000000   0.000000  -0.000000
    16  C    0.000000  -0.000000  -0.000000  -0.000000  -0.000000   0.000000
    17  C    0.395869   0.395695  -0.024257  -0.029898  -0.030058   0.000009
    18  C   -0.023891  -0.023888   0.398779   0.408456   0.408636  -0.000000
    19  C    0.000006   0.000005   0.000000  -0.000010  -0.000013   0.419277
    20  C   -0.000002  -0.000002   0.000001  -0.000010  -0.000008  -0.035688
    21  C    0.000010   0.000005  -0.000026   0.000376   0.000300   0.004463
    22  C   -0.000249  -0.000291   0.000651  -0.003502  -0.003344  -0.000243
    23  C    0.000285   0.000142   0.000030  -0.000029  -0.000029   0.000001
    24  C    0.002559   0.002234   0.000059  -0.000008  -0.000011   0.000023
    25  C    0.000001   0.000001  -0.000000  -0.000000  -0.000000   0.000000
    26  C   -0.000098  -0.000098   0.000000  -0.000000  -0.000000   0.000000
    27  C    0.000114   0.000148  -0.000004   0.000000   0.000000  -0.000000
    28  H    0.000000   0.000000  -0.000000  -0.000000  -0.000000   0.000000
    29  H    0.000000   0.000000   0.000000  -0.000000  -0.000000   0.000000
    30  H    0.000000   0.000000  -0.000000   0.000000   0.000000   0.000000
    31  H    0.000000   0.000000   0.000000  -0.000000  -0.000000   0.000000
    32  H   -0.000000   0.000000   0.000000  -0.000000   0.000000  -0.000000
    33  H    0.000000  -0.000000  -0.000000   0.000000  -0.000000  -0.000000
    34  H   -0.000000  -0.000000  -0.000000   0.000000   0.000000   0.000000
    35  H    0.000000  -0.000000  -0.000000   0.000000  -0.000000   0.000000
    36  H   -0.000000   0.000000  -0.000000  -0.000000   0.000000   0.000000
    37  H    0.589018  -0.053135  -0.004877   0.006952  -0.006743  -0.000001
    38  H   -0.053135   0.589134  -0.004500  -0.006842   0.006964  -0.000001
    39  H   -0.004877  -0.004500   0.537532  -0.022041  -0.021768   0.000000
    40  H    0.006952  -0.006842  -0.022041   0.537404  -0.031987  -0.000000
    41  H   -0.006743   0.006964  -0.021768  -0.031987   0.536067  -0.000000
    42  H   -0.000001  -0.000001   0.000000  -0.000000  -0.000000   0.558543
    43  H    0.000000   0.000000  -0.000000   0.000001   0.000001  -0.006633
    44  H   -0.000000   0.000000  -0.000002   0.000002   0.000002  -0.000269
    45  H   -0.000034  -0.000064   0.000685  -0.000537  -0.000867   0.000062
    46  H   -0.001223  -0.000770   0.000127  -0.000056  -0.000052  -0.000000
    47  H   -0.000043  -0.000052  -0.000001   0.000000   0.000000  -0.000003
    48  H   -0.000000  -0.000000   0.000000  -0.000000  -0.000000   0.000000
    49  H   -0.000034  -0.000037   0.000003  -0.000000  -0.000000  -0.000000
    50  H   -0.000025  -0.000022   0.000000  -0.000000  -0.000000  -0.000000
              43         44         45         46         47         48
     1  C   -0.000000   0.000000  -0.000000   0.000001   0.000000  -0.000000
     2  C    0.000000  -0.000000   0.000000   0.000000   0.000000   0.000007
     3  C    0.000000   0.000000   0.000000  -0.000000  -0.000000  -0.000001
     4  C    0.000000   0.000000  -0.000000   0.000000   0.000000   0.000000
     5  C    0.000000   0.000000   0.000000   0.000000   0.000000  -0.000039
     6  C    0.000000   0.000000   0.000000  -0.000000  -0.000000  -0.001042
     7  N    0.000000  -0.000000   0.000000   0.000000   0.000000  -0.000290
     8  C    0.000000   0.000000  -0.000000   0.000054   0.000002  -0.058577
     9  S    0.000000  -0.000000   0.000000  -0.000124  -0.000000   0.006547
    10  C    0.000008   0.000012  -0.000349  -0.002357  -0.051724   0.000001
    11  S   -0.000242   0.000091  -0.000569  -0.000376  -0.010613  -0.000000
    12  C    0.005160   0.000001   0.003732   0.000000  -0.000159  -0.000000
    13  C   -0.000387   0.005516  -0.061613   0.000063   0.000338   0.000000
    14  N    0.000013  -0.000044  -0.002296  -0.000565   0.002865   0.000000
    15  C    0.000000   0.000000  -0.000000   0.000000   0.000000  -0.000717
    16  C   -0.000000  -0.000000  -0.000000  -0.000000   0.000000   0.003738
    17  C   -0.000000  -0.000004  -0.001312   0.000664  -0.000330   0.000000
    18  C    0.000000   0.000004   0.001631   0.001201   0.000022   0.000000
    19  C   -0.043109   0.005224  -0.000235  -0.000000  -0.000044  -0.000000
    20  C    0.421448  -0.038293   0.005057   0.000000   0.000002   0.000000
    21  C   -0.038754   0.420222  -0.026352  -0.000000  -0.000001  -0.000000
    22  C    0.005621  -0.043242   0.420690  -0.000001   0.000015   0.000000
    23  C    0.000000  -0.000000   0.000001   0.394071  -0.048730   0.000470
    24  C    0.000000   0.000000   0.000007  -0.050841   0.420065   0.000009
    25  C   -0.000000  -0.000000   0.000000   0.000404  -0.000002   0.409252
    26  C    0.000000  -0.000000   0.000000  -0.000689   0.000311  -0.035667
    27  C    0.000000   0.000000  -0.000000  -0.034721  -0.002203   0.000994
    28  H    0.000000  -0.000000   0.000000  -0.000000  -0.000000   0.000000
    29  H    0.000000   0.000000   0.000000  -0.000000  -0.000000   0.000000
    30  H    0.000000   0.000000  -0.000000   0.000000   0.000000   0.000000
    31  H    0.000000   0.000000   0.000000  -0.000000  -0.000000  -0.000011
    32  H   -0.000000   0.000000  -0.000000  -0.000000  -0.000000  -0.000037
    33  H    0.000000  -0.000000   0.000000  -0.000000  -0.000000  -0.000012
    34  H   -0.000000  -0.000000   0.000000   0.000000  -0.000000   0.000422
    35  H   -0.000000   0.000000  -0.000000  -0.000000   0.000000   0.000196
    36  H   -0.000000   0.000000  -0.000000  -0.000000   0.000000   0.000468
    37  H    0.000000  -0.000000  -0.000034  -0.001223  -0.000043  -0.000000
    38  H    0.000000   0.000000  -0.000064  -0.000770  -0.000052  -0.000000
    39  H   -0.000000  -0.000002   0.000685   0.000127  -0.000001   0.000000
    40  H    0.000001   0.000002  -0.000537  -0.000056   0.000000  -0.000000
    41  H    0.000001   0.000002  -0.000867  -0.000052   0.000000  -0.000000
    42  H   -0.006633  -0.000269   0.000062  -0.000000  -0.000003   0.000000
    43  H    0.564372  -0.006812  -0.000226  -0.000000  -0.000000   0.000000
    44  H   -0.006812   0.569103  -0.007999   0.000000   0.000000  -0.000000
    45  H   -0.000226  -0.007999   0.576477  -0.000002   0.000000   0.000000
    46  H   -0.000000   0.000000  -0.000002   0.593859   0.006723   0.000067
    47  H   -0.000000   0.000000   0.000000   0.006723   0.578873   0.000006
    48  H    0.000000  -0.000000   0.000000   0.000067   0.000006   0.571794
    49  H    0.000000  -0.000000   0.000000   0.007121   0.000068   0.005963
    50  H   -0.000000   0.000000  -0.000000   0.006595   0.006303   0.005244
              49         50
     1  C    0.000018   0.000001
     2  C   -0.000019   0.000000
     3  C    0.000000   0.000000
     4  C   -0.000000  -0.000000
     5  C    0.000001   0.000000
     6  C   -0.000044   0.000001
     7  N    0.000236  -0.000001
     8  C   -0.003081   0.000481
     9  S    0.003477   0.000002
    10  C    0.000001   0.000790
    11  S    0.000000  -0.000045
    12  C    0.000000   0.000001
    13  C    0.000000  -0.000000
    14  N    0.000005   0.000004
    15  C   -0.000024  -0.000006
    16  C   -0.000018  -0.000027
    17  C   -0.000041  -0.000023
    18  C   -0.000000   0.000001
    19  C   -0.000000  -0.000000
    20  C    0.000000  -0.000000
    21  C   -0.000000   0.000000
    22  C    0.000000   0.000000
    23  C   -0.001359  -0.059647
    24  C    0.000796   0.001378
    25  C   -0.054020  -0.000163
    26  C    0.398889  -0.056610
    27  C   -0.038969   0.427053
    28  H    0.000001  -0.000000
    29  H   -0.000000  -0.000000
    30  H    0.000000  -0.000000
    31  H    0.000000   0.000000
    32  H   -0.000000  -0.000000
    33  H   -0.000000  -0.000000
    34  H    0.000002   0.000006
    35  H   -0.000018  -0.000024
    36  H   -0.000017  -0.000027
    37  H   -0.000034  -0.000025
    38  H   -0.000037  -0.000022
    39  H    0.000003   0.000000
    40  H   -0.000000  -0.000000
    41  H   -0.000000  -0.000000
    42  H   -0.000000  -0.000000
    43  H    0.000000  -0.000000
    44  H   -0.000000   0.000000
    45  H    0.000000  -0.000000
    46  H    0.007121   0.006595
    47  H    0.000068   0.006303
    48  H    0.005963   0.005244
    49  H    0.587281   0.006360
    50  H    0.006360   0.591226
 Mulliken charges:
               1
     1  C    0.004931
     2  C   -0.199522
     3  C   -0.048834
     4  C   -0.081698
     5  C   -0.149540
     6  C    0.342391
     7  N   -0.473810
     8  C    0.369534
     9  S    0.147182
    10  C    0.325346
    11  S    0.169950
    12  C    0.013914
    13  C    0.297210
    14  N   -0.454344
    15  C   -0.081441
    16  C   -0.327421
    17  C   -0.103701
    18  C   -0.316715
    19  C   -0.200207
    20  C   -0.046127
    21  C   -0.087368
    22  C   -0.112027
    23  C   -0.007317
    24  C   -0.211624
    25  C   -0.244341
    26  C   -0.017310
    27  C   -0.096842
    28  H    0.100253
    29  H    0.099510
    30  H    0.097811
    31  H    0.096598
    32  H    0.136662
    33  H    0.136768
    34  H    0.141381
    35  H    0.137549
    36  H    0.137120
    37  H    0.131363
    38  H    0.130937
    39  H    0.137250
    40  H    0.141358
    41  H    0.142156
    42  H    0.103884
    43  H    0.099541
    44  H    0.096489
    45  H    0.094112
    46  H    0.080828
    47  H    0.098312
    48  H    0.091216
    49  H    0.087458
    50  H    0.071174
 Sum of Mulliken charges =   1.00000
 Mulliken charges with hydrogens summed into heavy atoms:
               1
     1  C    0.004931
     2  C   -0.099269
     3  C    0.050676
     4  C    0.016113
     5  C   -0.052942
     6  C    0.342391
     7  N   -0.473810
     8  C    0.369534
     9  S    0.147182
    10  C    0.325346
    11  S    0.169950
    12  C    0.013914
    13  C    0.297210
    14  N   -0.454344
    15  C    0.191989
    16  C    0.088629
    17  C    0.158598
    18  C    0.104050
    19  C   -0.096322
    20  C    0.053414
    21  C    0.009121
    22  C   -0.017915
    23  C    0.073511
    24  C   -0.113311
    25  C   -0.153125
    26  C    0.070148
    27  C   -0.025668
 Electronic spatial extent (au):  <R**2>=          24001.6359
 Charge=              1.0000 electrons
 Dipole moment (field-independent basis, Debye):
    X=              1.2750    Y=             -0.0716    Z=              0.0205  Tot=              1.2771
 Quadrupole moment (field-independent basis, Debye-Ang):
   XX=              8.3721   YY=           -130.2850   ZZ=           -180.2357
   XY=             16.8928   XZ=              0.0261   YZ=              0.0113
 Traceless Quadrupole moment (field-independent basis, Debye-Ang):
   XX=            109.0883   YY=            -29.5688   ZZ=            -79.5195
   XY=             16.8928   XZ=              0.0261   YZ=              0.0113
 Octapole moment (field-independent basis, Debye-Ang**2):
  XXX=             41.8827  YYY=             -1.7213  ZZZ=              0.3366  XYY=             41.3314
  XXY=            -18.8764  XXZ=             -1.5759  XZZ=              2.5406  YZZ=              2.4249
  YYZ=              0.2147  XYZ=              1.0645
 Hexadecapole moment (field-independent basis, Debye-Ang**3):
 XXXX=         -18484.0967 YYYY=          -2598.5072 ZZZZ=           -227.0145 XXXY=             54.3522
 XXXZ=              7.9839 YYYX=            128.0311 YYYZ=              0.5014 ZZZX=             -0.4466
 ZZZY=             -0.2964 XXYY=          -4236.2890 XXZZ=          -5418.3459 YYZZ=           -552.0929
 XXYZ=              2.0579 YYXZ=             -0.2786 ZZXY=             59.2259
 N-N= 2.398811272433D+03 E-N=-8.986183501326D+03  KE= 1.788496052775D+03
 1\1\GINC-CN05\SP\RPBE1PBE TD-FC\6-311G(2d,p)\C23H23N2S2(1+)\2100011837
 \25-Oct-2023\0\\# td PBE1PBE/6-311g(2d,p)\\3\\1,1\C,0,5.598601,-1.3410
 94,-0.007061\C,0,6.472492,-2.422432,-0.011892\C,0,7.84758,-2.159226,-0
 .013286\C,0,8.315634,-0.837298,-0.010001\C,0,7.430522,0.245543,-0.0050
 81\C,0,6.051786,-0.014271,-0.00337\N,0,5.008669,0.953335,0.001698\C,0,
 3.735978,0.440659,0.000627\S,0,3.784358,-1.393975,-0.004841\C,0,-3.757
 932,0.702261,0.00122\S,0,-5.015177,2.011654,-0.006267\C,0,-6.312514,0.
 749865,-0.007997\C,0,-5.765462,-0.549197,-0.002665\N,0,-4.336845,-0.54
 551,0.004333\C,0,5.463856,2.384446,0.006824\C,0,4.44273,3.518833,0.023
 09\C,0,-3.409521,-1.720425,0.016855\C,0,-3.977526,-3.137934,0.04325\C,
 0,-7.682542,0.994144,-0.01461\C,0,-8.550732,-0.099379,-0.01652\C,0,-8.
 029944,-1.40082,-0.012208\C,0,-6.6534,-1.640134,-0.005468\C,0,-1.19273
 7,0.448543,0.001786\C,0,-2.420801,1.123289,0.003079\C,0,2.508263,1.103
 976,0.002676\C,0,1.265069,0.461367,0.001302\C,0,0.035449,1.122518,0.00
 3368\H,0,6.101367,-3.440361,-0.014614\H,0,8.550709,-2.983856,-0.017075
 \H,0,9.382294,-0.644911,-0.011373\H,0,7.819986,1.254521,-0.003004\H,0,
 6.097547,2.493575,-0.880704\H,0,6.110765,2.481774,0.886059\H,0,5.01177
 3,4.454819,0.030058\H,0,3.819706,3.515333,0.920655\H,0,3.811538,3.5339
 32,-0.868586\H,0,-2.771988,-1.587563,0.897926\H,0,-2.779255,-1.615513,
 -0.873313\H,0,-3.120195,-3.819797,0.06035\H,0,-4.560476,-3.377342,-0.8
 4858\H,0,-4.567649,-3.340716,0.939512\H,0,-8.062971,2.008762,-0.018462
 \H,0,-9.622367,0.060872,-0.021732\H,0,-8.70448,-2.249417,-0.014335\H,0
 ,-6.310509,-2.658897,-0.003059\H,0,-1.143829,-0.633631,-0.001701\H,0,-
 2.330639,2.207101,0.003995\H,0,2.501254,2.181621,0.005248\H,0,1.239239
 ,-0.628356,-0.001612\H,0,0.029416,2.21102,0.006356\\Version=ES64L-G16R
 evA.03\State=1-A\HF=-1794.7681224\RMSD=6.513e-09\PG=C01 [X(C23H23N2S2)
 ]\\@


 SIGN SEEN IN A RESTAURANT-
 WE RESERVE THE RIGHT TO SERVE REFUSE TO ANYONE.
 Job cpu time:       0 days  3 hours 14 minutes 44.5 seconds.
 Elapsed time:       0 days  0 hours  9 minutes 46.1 seconds.
 File lengths (MBytes):  RWF=   2992 Int=      0 D2E=      0 Chk=    112 Scr=     32
 Normal termination of Gaussian 16 at Wed Oct 25 13:13:12 2023.
