 Entering Gaussian System, Link 0=g16
 Input=5.gjf
 Output=5.log
 Initial command:
 /nfs-share/home/2100011837/g16/l1.exe "/nfs-share/home/2100011837/g16tmp/Gau-16956.inp" -scrdir="/nfs-share/home/2100011837/g16tmp/"
 Entering Link 1 = /nfs-share/home/2100011837/g16/l1.exe PID=     16958.
  
 Copyright (c) 1988,1990,1992,1993,1995,1998,2003,2009,2016,
            Gaussian, Inc.  All Rights Reserved.
  
 This is part of the Gaussian(R) 16 program.  It is based on
 the Gaussian(R) 09 system (copyright 2009, Gaussian, Inc.),
 the Gaussian(R) 03 system (copyright 2003, Gaussian, Inc.),
 the Gaussian(R) 98 system (copyright 1998, Gaussian, Inc.),
 the Gaussian(R) 94 system (copyright 1995, Gaussian, Inc.),
 the Gaussian 92(TM) system (copyright 1992, Gaussian, Inc.),
 the Gaussian 90(TM) system (copyright 1990, Gaussian, Inc.),
 the Gaussian 88(TM) system (copyright 1988, Gaussian, Inc.),
 the Gaussian 86(TM) system (copyright 1986, Carnegie Mellon
 University), and the Gaussian 82(TM) system (copyright 1983,
 Carnegie Mellon University). Gaussian is a federally registered
 trademark of Gaussian, Inc.
  
 This software contains proprietary and confidential information,
 including trade secrets, belonging to Gaussian, Inc.
  
 This software is provided under written license and may be
 used, copied, transmitted, or stored only in accord with that
 written license.
  
 The following legend is applicable only to US Government
 contracts under FAR:
  
                    RESTRICTED RIGHTS LEGEND
  
 Use, reproduction and disclosure by the US Government is
 subject to restrictions as set forth in subparagraphs (a)
 and (c) of the Commercial Computer Software - Restricted
 Rights clause in FAR 52.227-19.
  
 Gaussian, Inc.
 340 Quinnipiac St., Bldg. 40, Wallingford CT 06492
  
  
 ---------------------------------------------------------------
 Warning -- This program may not be used in any manner that
 competes with the business of Gaussian, Inc. or will provide
 assistance to any competitor of Gaussian, Inc.  The licensee
 of this program is prohibited from giving any competitor of
 Gaussian, Inc. access to this program.  By using this program,
 the user acknowledges that Gaussian, Inc. is engaged in the
 business of creating and licensing software in the field of
 computational chemistry and represents and warrants to the
 licensee that it is not a competitor of Gaussian, Inc. and that
 it will not use this program in any manner prohibited above.
 ---------------------------------------------------------------
  

 Cite this work as:
 Gaussian 16, Revision A.03,
 M. J. Frisch, G. W. Trucks, H. B. Schlegel, G. E. Scuseria, 
 M. A. Robb, J. R. Cheeseman, G. Scalmani, V. Barone, 
 G. A. Petersson, H. Nakatsuji, X. Li, M. Caricato, A. V. Marenich, 
 J. Bloino, B. G. Janesko, R. Gomperts, B. Mennucci, H. P. Hratchian, 
 J. V. Ortiz, A. F. Izmaylov, J. L. Sonnenberg, D. Williams-Young, 
 F. Ding, F. Lipparini, F. Egidi, J. Goings, B. Peng, A. Petrone, 
 T. Henderson, D. Ranasinghe, V. G. Zakrzewski, J. Gao, N. Rega, 
 G. Zheng, W. Liang, M. Hada, M. Ehara, K. Toyota, R. Fukuda, 
 J. Hasegawa, M. Ishida, T. Nakajima, Y. Honda, O. Kitao, H. Nakai, 
 T. Vreven, K. Throssell, J. A. Montgomery, Jr., J. E. Peralta, 
 F. Ogliaro, M. J. Bearpark, J. J. Heyd, E. N. Brothers, K. N. Kudin, 
 V. N. Staroverov, T. A. Keith, R. Kobayashi, J. Normand, 
 K. Raghavachari, A. P. Rendell, J. C. Burant, S. S. Iyengar, 
 J. Tomasi, M. Cossi, J. M. Millam, M. Klene, C. Adamo, R. Cammi, 
 J. W. Ochterski, R. L. Martin, K. Morokuma, O. Farkas, 
 J. B. Foresman, and D. J. Fox, Gaussian, Inc., Wallingford CT, 2016.
 
 ******************************************
 Gaussian 16:  ES64L-G16RevA.03 25-Dec-2016
                25-Oct-2023 
 ******************************************
 %nprocshared=20
 Will use up to   20 processors via shared memory.
 %mem=20GB
 -------------------------
 # td PBE1PBE/6-311g(2d,p)
 -------------------------
 1/38=1,172=1/1;
 2/12=2,17=6,18=5,40=1/2;
 3/5=4,6=6,7=102,11=9,25=1,30=1,74=-13/1,2,3,8;
 4//1;
 5/5=2,38=5/2;
 8/6=1,10=2/1;
 9/42=1,70=2/14;
 6/7=2,8=2,9=2,10=2/1;
 99/5=1,9=1/99;
 -
 5
 -
 Symbolic Z-matrix:
 Charge =  0 Multiplicity = 1
 C                    -11.73435  -1.46327   0.19782 
 C                    -13.19338  -1.96498   0.35753 
 C                    -14.1503  -1.36625  -0.66698 
 C                    -14.19788   0.14599  -0.4705 
 C                    -12.83981   0.78115  -0.26647 
 C                    -11.6992   0.06914  -0.02074 
 C                    -12.87855   2.29367  -0.39978 
 C                    -11.0146  -1.85389   1.51304 
 C                    -11.0878  -2.2093   -0.99652 
 C                    -10.43465   0.80866   0.02799 
 C                    -9.14771   0.36848   0.05175 
 C                    -7.97099   1.21879   0.06421 
 C                    -6.73849   0.61873   0.07015 
 C                    -5.44585   1.23796   0.07871 
 C                    -4.28035   0.5259    0.08157 
 C                    -2.94262   1.06356   0.08665 
 C                    -1.88554   0.18496   0.08738 
 C                    -0.48837   0.47979   0.08905 
 C                     0.48835  -0.47997   0.0888 
 C                     1.88551  -0.18514   0.08748 
 C                     2.9426   -1.06372   0.08625 
 C                     4.28032  -0.52604   0.08158 
 C                     5.44584  -1.23807   0.07809 
 C                     6.73846  -0.6188    0.07 
 C                     7.97098  -1.21881   0.06358 
 C                     9.14766  -0.36844   0.05185 
 C                     10.43462  -0.80855   0.02776 
 C                    -8.15655   2.71715   0.06916 
 C                    -2.76951   2.56417   0.08978 
 C                     2.76952  -2.56433   0.08844 
 C                     8.15658  -2.71718   0.06726 
 C                     11.6992  -0.06906  -0.0204 
 C                     11.73417   1.46349   0.19724 
 C                     13.19313   1.96558   0.35651 
 C                     14.15019   1.36602  -0.66737 
 C                     14.19804  -0.14598  -0.46921 
 C                     12.84001  -0.78117  -0.26499 
 C                     12.87926  -2.29377  -0.39697 
 C                     11.01455   1.85474   1.51235 
 C                     11.08739   2.20873  -0.99746 
 H                    -13.55232  -1.70396   1.36369 
 H                    -13.19205  -3.0614    0.30325 
 H                    -15.15326  -1.79811  -0.56313 
 H                    -13.81314  -1.59798  -1.68526 
 H                    -14.83672   0.39299   0.39494 
 H                    -14.68504   0.63122  -1.32931 
 H                    -12.32557   2.80964   0.39226 
 H                    -12.46648   2.63312  -1.36019 
 H                    -13.91343   2.64911  -0.35352 
 H                    -11.41656  -1.2807    2.35629 
 H                    -11.18387  -2.91818   1.71975 
 H                    -9.93618  -1.69079   1.48832 
 H                    -10.06241  -1.88524  -1.18785 
 H                    -11.06767  -3.28884  -0.80047 
 H                    -11.65326  -2.04544  -1.92009 
 H                    -10.55322   1.88629   0.00054 
 H                    -8.93161  -0.69444   0.04755 
 H                    -6.72721  -0.47233   0.06643 
 H                    -5.39418   2.32327   0.08144 
 H                    -4.35409  -0.56248   0.07848 
 H                    -2.13645  -0.8768    0.08543 
 H                    -0.17248   1.52161   0.08954 
 H                     0.17245  -1.5218    0.08857 
 H                     2.13642   0.87663   0.08623 
 H                     4.35404   0.56235   0.07936 
 H                     5.39419  -2.32338   0.07991 
 H                     6.72715   0.47227   0.06714 
 H                     8.93148   0.69446   0.04856 
 H                     10.55318  -1.88615  -0.0007 
 H                    -8.74339   3.03626   0.93992 
 H                    -7.20911   3.25789   0.09305 
 H                    -8.70491   3.04738  -0.82252 
 H                    -3.24193   3.01389  -0.7928 
 H                    -3.2485    3.01086   0.97035 
 H                    -1.72147   2.86794   0.09431 
 H                     1.72149  -2.86812   0.09284 
 H                     3.24189  -3.01351  -0.79444 
 H                     3.24857  -3.01155   0.96871 
 H                     7.20916  -3.25797   0.09101 
 H                     8.70469  -3.04668  -0.82484 
 H                     8.74368  -3.03698   0.9376 
 H                     13.1916   3.06196   0.30121 
 H                     13.5521   1.70556   1.36292 
 H                     15.15305   1.7982   -0.56397 
 H                     13.81298   1.59658  -1.68591 
 H                     14.83666  -0.39188   0.39671 
 H                     14.68556  -0.6321   -1.32732 
 H                     12.32356  -2.8093    0.3934 
 H                     12.47074  -2.63389  -1.35869 
 H                     13.91403  -2.64902  -0.34684 
 H                     11.41667   1.28203   2.35584 
 H                     11.18377   2.91916   1.71847 
 H                     9.93613   1.69157   1.48789 
 H                     10.06214   1.88418  -1.18871 
 H                     11.06685   3.28835  -0.80191 
 H                     11.65298   2.04467  -1.92092 
 
 Stoichiometry    C40H56
 Framework group  C1[X(C40H56)]
 Deg. of freedom   282
 Full point group                 C1      NOp   1
 Largest Abelian subgroup         C1      NOp   1
 Largest concise Abelian subgroup C1      NOp   1
                         Standard orientation:                         
 ---------------------------------------------------------------------
 Center     Atomic      Atomic             Coordinates (Angstroms)
 Number     Number       Type             X           Y           Z
 ---------------------------------------------------------------------
      1          6           0      -11.734347   -1.463270    0.197823
      2          6           0      -13.193380   -1.964978    0.357528
      3          6           0      -14.150305   -1.366251   -0.666975
      4          6           0      -14.197879    0.145991   -0.470499
      5          6           0      -12.839809    0.781151   -0.266473
      6          6           0      -11.699200    0.069135   -0.020735
      7          6           0      -12.878548    2.293672   -0.399781
      8          6           0      -11.014600   -1.853889    1.513038
      9          6           0      -11.087804   -2.209300   -0.996519
     10          6           0      -10.434650    0.808656    0.027994
     11          6           0       -9.147712    0.368476    0.051748
     12          6           0       -7.970994    1.218788    0.064208
     13          6           0       -6.738494    0.618732    0.070151
     14          6           0       -5.445853    1.237956    0.078711
     15          6           0       -4.280345    0.525898    0.081573
     16          6           0       -2.942615    1.063559    0.086650
     17          6           0       -1.885537    0.184962    0.087380
     18          6           0       -0.488371    0.479787    0.089053
     19          6           0        0.488347   -0.479969    0.088801
     20          6           0        1.885511   -0.185136    0.087475
     21          6           0        2.942600   -1.063720    0.086252
     22          6           0        4.280317   -0.526037    0.081579
     23          6           0        5.445840   -1.238065    0.078089
     24          6           0        6.738463   -0.618803    0.070000
     25          6           0        7.970984   -1.218814    0.063575
     26          6           0        9.147663   -0.368436    0.051849
     27          6           0       10.434624   -0.808549    0.027759
     28          6           0       -8.156553    2.717150    0.069156
     29          6           0       -2.769508    2.564166    0.089783
     30          6           0        2.769517   -2.564327    0.088440
     31          6           0        8.156583   -2.717179    0.067262
     32          6           0       11.699201   -0.069059   -0.020403
     33          6           0       11.734174    1.463486    0.197241
     34          6           0       13.193129    1.965583    0.356510
     35          6           0       14.150188    1.366019   -0.667374
     36          6           0       14.198042   -0.145980   -0.469211
     37          6           0       12.840010   -0.781172   -0.264991
     38          6           0       12.879257   -2.293768   -0.396971
     39          6           0       11.014549    1.854740    1.512348
     40          6           0       11.087391    2.208725   -0.997464
     41          1           0      -13.552321   -1.703956    1.363685
     42          1           0      -13.192047   -3.061404    0.303248
     43          1           0      -15.153264   -1.798105   -0.563126
     44          1           0      -13.813140   -1.597981   -1.685258
     45          1           0      -14.836724    0.392993    0.394939
     46          1           0      -14.685037    0.631223   -1.329306
     47          1           0      -12.325572    2.809643    0.392261
     48          1           0      -12.466482    2.633120   -1.360193
     49          1           0      -13.913425    2.649109   -0.353524
     50          1           0      -11.416556   -1.280703    2.356288
     51          1           0      -11.183867   -2.918184    1.719753
     52          1           0       -9.936176   -1.690791    1.488324
     53          1           0      -10.062409   -1.885242   -1.187849
     54          1           0      -11.067666   -3.288842   -0.800474
     55          1           0      -11.653264   -2.045445   -1.920085
     56          1           0      -10.553220    1.886292    0.000541
     57          1           0       -8.931611   -0.694439    0.047554
     58          1           0       -6.727213   -0.472334    0.066433
     59          1           0       -5.394175    2.323265    0.081444
     60          1           0       -4.354088   -0.562482    0.078481
     61          1           0       -2.136452   -0.876804    0.085428
     62          1           0       -0.172475    1.521613    0.089536
     63          1           0        0.172451   -1.521796    0.088568
     64          1           0        2.136416    0.876634    0.086232
     65          1           0        4.354044    0.562348    0.079364
     66          1           0        5.394192   -2.323379    0.079909
     67          1           0        6.727154    0.472266    0.067137
     68          1           0        8.931483    0.694460    0.048557
     69          1           0       10.553176   -1.886154   -0.000703
     70          1           0       -8.743395    3.036257    0.939921
     71          1           0       -7.209108    3.257895    0.093049
     72          1           0       -8.704911    3.047382   -0.822520
     73          1           0       -3.241932    3.013890   -0.792798
     74          1           0       -3.248496    3.010862    0.970351
     75          1           0       -1.721474    2.867936    0.094306
     76          1           0        1.721486   -2.868120    0.092840
     77          1           0        3.241891   -3.013511   -0.794442
     78          1           0        3.248565   -3.011550    0.968706
     79          1           0        7.209159   -3.257966    0.091008
     80          1           0        8.704687   -3.046679   -0.824841
     81          1           0        8.743681   -3.036978    0.937599
     82          1           0       13.191601    3.061957    0.301212
     83          1           0       13.552096    1.705563    1.362915
     84          1           0       15.153054    1.798199   -0.563974
     85          1           0       13.812978    1.596575   -1.685912
     86          1           0       14.836658   -0.391875    0.396706
     87          1           0       14.685561   -0.632101   -1.327317
     88          1           0       12.323558   -2.809301    0.393398
     89          1           0       12.470743   -2.633888   -1.358690
     90          1           0       13.914032   -2.649023   -0.346838
     91          1           0       11.416667    1.282028    2.355841
     92          1           0       11.183770    2.919158    1.718473
     93          1           0        9.936132    1.691574    1.487888
     94          1           0       10.062138    1.884180   -1.188707
     95          1           0       11.066849    3.288348   -0.801914
     96          1           0       11.652983    2.044667   -1.920915
 ---------------------------------------------------------------------
 Rotational constants (GHZ):           0.3478399           0.0099525           0.0097368
 Standard basis: 6-311G(2d,p) (5D, 7F)
 There are  1336 symmetry adapted cartesian basis functions of A   symmetry.
 There are  1256 symmetry adapted basis functions of A   symmetry.
  1256 basis functions,  1968 primitive gaussians,  1336 cartesian basis functions
   148 alpha electrons      148 beta electrons
       nuclear repulsion energy      3637.1605557875 Hartrees.
 NAtoms=   96 NActive=   96 NUniq=   96 SFac= 1.00D+00 NAtFMM=   60 NAOKFM=T Big=T
 Integral buffers will be    131072 words long.
 Regular integral format.
 Two-electron integral symmetry is turned on.
 One-electron integrals computed using PRISM.
 NBasis=  1256 RedAO= T EigKep=  8.03D-05  NBF=  1256
 NBsUse=  1256 1.00D-06 EigRej= -1.00D+00 NBFU=  1256
 ExpMin= 1.03D-01 ExpMax= 4.56D+03 ExpMxC= 6.82D+02 IAcc=3 IRadAn=         5 AccDes= 0.00D+00
 Harris functional with IExCor= 1009 and IRadAn=       5 diagonalized for initial guess.
 HarFok:  IExCor= 1009 AccDes= 0.00D+00 IRadAn=         5 IDoV= 1 UseB2=F ITyADJ=14
 ICtDFT=  3500011 ScaDFX=  1.000000  1.000000  1.000000  1.000000
 FoFCou: FMM=F IPFlag=           0 FMFlag=      100000 FMFlg1=        2001
         NFxFlg=           0 DoJE=T BraDBF=F KetDBF=T FulRan=T
         wScrn=  0.000000 ICntrl=       500 IOpCl=  0 I1Cent=   200000004 NGrid=           0
         NMat0=    1 NMatS0=      1 NMatT0=    0 NMatD0=    1 NMtDS0=    0 NMtDT0=    0
 Petite list used in FoFCou.
 Requested convergence on RMS density matrix=1.00D-08 within 128 cycles.
 Requested convergence on MAX density matrix=1.00D-06.
 Requested convergence on             energy=1.00D-06.
 No special actions if energy rises.
 Integral accuracy reduced to 1.0D-05 until final iterations.
 Initial convergence to 1.0D-05 achieved.  Increase integral accuracy.
 SCF Done:  E(RPBE1PBE) =  -1556.38693136     A.U. after   14 cycles
            NFock= 14  Conv=0.52D-08     -V/T= 2.0051
 DoSCS=F DFT=T ScalE2(SS,OS)=  1.000000  1.000000
 ExpMin= 1.03D-01 ExpMax= 4.56D+03 ExpMxC= 6.82D+02 IAcc=3 IRadAn=         5 AccDes= 0.00D+00
 HarFok:  IExCor=  205 AccDes= 0.00D+00 IRadAn=         5 IDoV=-2 UseB2=F ITyADJ=14
 ICtDFT= 12500011 ScaDFX=  1.000000  1.000000  1.000000  1.000000
 GSVD:  LWork=       -1920 too small for GESVD, short by        8600 words or        8600 for optimal perf.
 Range of M.O.s used for correlation:    41  1256
 NBasis=  1256 NAE=   148 NBE=   148 NFC=    40 NFV=     0
 NROrb=   1216 NOA=   108 NOB=   108 NVA=  1108 NVB=  1108

 **** Warning!!: The largest alpha MO coefficient is  0.16237836D+02


 **** Warning!!: The smallest alpha delta epsilon is  0.86148345D-01

 Orbital symmetries:
       Occupied  (A) (A) (A) (A) (A) (A) (A) (A) (A) (A) (A) (A)
                 (A) (A) (A) (A) (A) (A) (A) (A) (A) (A) (A) (A)
                 (A) (A) (A) (A) (A) (A) (A) (A) (A) (A) (A) (A)
                 (A) (A) (A) (A) (A) (A) (A) (A) (A) (A) (A) (A)
                 (A) (A) (A) (A) (A) (A) (A) (A) (A) (A) (A) (A)
                 (A) (A) (A) (A) (A) (A) (A) (A) (A) (A) (A) (A)
                 (A) (A) (A) (A) (A) (A) (A) (A) (A) (A) (A) (A)
                 (A) (A) (A) (A) (A) (A) (A) (A) (A) (A) (A) (A)
                 (A) (A) (A) (A) (A) (A) (A) (A) (A) (A) (A) (A)
                 (A) (A) (A) (A) (A) (A) (A) (A) (A) (A) (A) (A)
                 (A) (A) (A) (A) (A) (A) (A) (A) (A) (A) (A) (A)
                 (A) (A) (A) (A) (A) (A) (A) (A) (A) (A) (A) (A)
                 (A) (A) (A) (A)
       Virtual   (A) (A) (A) (A) (A) (A) (A) (A) (A) (A) (A) (A)
                 (A) (A) (A) (A) (A) (A) (A) (A) (A) (A) (A) (A)
                 (A) (A) (A) (A) (A) (A) (A) (A) (A) (A) (A) (A)
                 (A) (A) (A) (A) (A) (A) (A) (A) (A) (A) (A) (A)
                 (A) (A) (A) (A) (A) (A) (A) (A) (A) (A) (A) (A)
                 (A) (A) (A) (A) (A) (A) (A) (A) (A) (A) (A) (A)
                 (A) (A) (A) (A) (A) (A) (A) (A) (A) (A) (A) (A)
                 (A) (A) (A) (A) (A) (A) (A) (A) (A) (A) (A) (A)
                 (A) (A) (A) (A) (A) (A) (A) (A) (A) (A) (A) (A)
                 (A) (A) (A) (A) (A) (A) (A) (A) (A) (A) (A) (A)
                 (A) (A) (A) (A) (A) (A) (A) (A) (A) (A) (A) (A)
                 (A) (A) (A) (A) (A) (A) (A) (A) (A) (A) (A) (A)
                 (A) (A) (A) (A) (A) (A) (A) (A) (A) (A) (A) (A)
                 (A) (A) (A) (A) (A) (A) (A) (A) (A) (A) (A) (A)
                 (A) (A) (A) (A) (A) (A) (A) (A) (A) (A) (A) (A)
                 (A) (A) (A) (A) (A) (A) (A) (A) (A) (A) (A) (A)
                 (A) (A) (A) (A) (A) (A) (A) (A) (A) (A) (A) (A)
                 (A) (A) (A) (A) (A) (A) (A) (A) (A) (A) (A) (A)
                 (A) (A) (A) (A) (A) (A) (A) (A) (A) (A) (A) (A)
                 (A) (A) (A) (A) (A) (A) (A) (A) (A) (A) (A) (A)
                 (A) (A) (A) (A) (A) (A) (A) (A) (A) (A) (A) (A)
                 (A) (A) (A) (A) (A) (A) (A) (A) (A) (A) (A) (A)
                 (A) (A) (A) (A) (A) (A) (A) (A) (A) (A) (A) (A)
                 (A) (A) (A) (A) (A) (A) (A) (A) (A) (A) (A) (A)
                 (A) (A) (A) (A) (A) (A) (A) (A) (A) (A) (A) (A)
                 (A) (A) (A) (A) (A) (A) (A) (A) (A) (A) (A) (A)
                 (A) (A) (A) (A) (A) (A) (A) (A) (A) (A) (A) (A)
                 (A) (A) (A) (A) (A) (A) (A) (A) (A) (A) (A) (A)
                 (A) (A) (A) (A) (A) (A) (A) (A) (A) (A) (A) (A)
                 (A) (A) (A) (A) (A) (A) (A) (A) (A) (A) (A) (A)
                 (A) (A) (A) (A) (A) (A) (A) (A) (A) (A) (A) (A)
                 (A) (A) (A) (A) (A) (A) (A) (A) (A) (A) (A) (A)
                 (A) (A) (A) (A) (A) (A) (A) (A) (A) (A) (A) (A)
                 (A) (A) (A) (A) (A) (A) (A) (A) (A) (A) (A) (A)
                 (A) (A) (A) (A) (A) (A) (A) (A) (A) (A) (A) (A)
                 (A) (A) (A) (A) (A) (A) (A) (A) (A) (A) (A) (A)
                 (A) (A) (A) (A) (A) (A) (A) (A) (A) (A) (A) (A)
                 (A) (A) (A) (A) (A) (A) (A) (A) (A) (A) (A) (A)
                 (A) (A) (A) (A) (A) (A) (A) (A) (A) (A) (A) (A)
                 (A) (A) (A) (A) (A) (A) (A) (A) (A) (A) (A) (A)
                 (A) (A) (A) (A) (A) (A) (A) (A) (A) (A) (A) (A)
                 (A) (A) (A) (A) (A) (A) (A) (A) (A) (A) (A) (A)
                 (A) (A) (A) (A) (A) (A) (A) (A) (A) (A) (A) (A)
                 (A) (A) (A) (A) (A) (A) (A) (A) (A) (A) (A) (A)
                 (A) (A) (A) (A) (A) (A) (A) (A) (A) (A) (A) (A)
                 (A) (A) (A) (A) (A) (A) (A) (A) (A) (A) (A) (A)
                 (A) (A) (A) (A) (A) (A) (A) (A) (A) (A) (A) (A)
                 (A) (A) (A) (A) (A) (A) (A) (A) (A) (A) (A) (A)
                 (A) (A) (A) (A) (A) (A) (A) (A) (A) (A) (A) (A)
                 (A) (A) (A) (A) (A) (A) (A) (A) (A) (A) (A) (A)
                 (A) (A) (A) (A) (A) (A) (A) (A) (A) (A) (A) (A)
                 (A) (A) (A) (A) (A) (A) (A) (A) (A) (A) (A) (A)
                 (A) (A) (A) (A) (A) (A) (A) (A) (A) (A) (A) (A)
                 (A) (A) (A) (A) (A) (A) (A) (A) (A) (A) (A) (A)
                 (A) (A) (A) (A) (A) (A) (A) (A) (A) (A) (A) (A)
                 (A) (A) (A) (A) (A) (A) (A) (A) (A) (A) (A) (A)
                 (A) (A) (A) (A) (A) (A) (A) (A) (A) (A) (A) (A)
                 (A) (A) (A) (A) (A) (A) (A) (A) (A) (A) (A) (A)
                 (A) (A) (A) (A) (A) (A) (A) (A) (A) (A) (A) (A)
                 (A) (A) (A) (A) (A) (A) (A) (A) (A) (A) (A) (A)
                 (A) (A) (A) (A) (A) (A) (A) (A) (A) (A) (A) (A)
                 (A) (A) (A) (A) (A) (A) (A) (A) (A) (A) (A) (A)
                 (A) (A) (A) (A) (A) (A) (A) (A) (A) (A) (A) (A)
                 (A) (A) (A) (A) (A) (A) (A) (A) (A) (A) (A) (A)
                 (A) (A) (A) (A) (A) (A) (A) (A) (A) (A) (A) (A)
                 (A) (A) (A) (A) (A) (A) (A) (A) (A) (A) (A) (A)
                 (A) (A) (A) (A) (A) (A) (A) (A) (A) (A) (A) (A)
                 (A) (A) (A) (A) (A) (A) (A) (A) (A) (A) (A) (A)
                 (A) (A) (A) (A) (A) (A) (A) (A) (A) (A) (A) (A)
                 (A) (A) (A) (A) (A) (A) (A) (A) (A) (A) (A) (A)
                 (A) (A) (A) (A) (A) (A) (A) (A) (A) (A) (A) (A)
                 (A) (A) (A) (A) (A) (A) (A) (A) (A) (A) (A) (A)
                 (A) (A) (A) (A) (A) (A) (A) (A) (A) (A) (A) (A)
                 (A) (A) (A) (A) (A) (A) (A) (A) (A) (A) (A) (A)
                 (A) (A) (A) (A) (A) (A) (A) (A) (A) (A) (A) (A)
                 (A) (A) (A) (A) (A) (A) (A) (A) (A) (A) (A) (A)
                 (A) (A) (A) (A) (A) (A) (A) (A) (A) (A) (A) (A)
                 (A) (A) (A) (A) (A) (A) (A) (A) (A) (A) (A) (A)
                 (A) (A) (A) (A) (A) (A) (A) (A) (A) (A) (A) (A)
                 (A) (A) (A) (A) (A) (A) (A) (A) (A) (A) (A) (A)
                 (A) (A) (A) (A) (A) (A) (A) (A) (A) (A) (A) (A)
                 (A) (A) (A) (A) (A) (A) (A) (A) (A) (A) (A) (A)
                 (A) (A) (A) (A) (A) (A) (A) (A) (A) (A) (A) (A)
                 (A) (A) (A) (A) (A) (A) (A) (A) (A) (A) (A) (A)
                 (A) (A) (A) (A) (A) (A) (A) (A) (A) (A) (A) (A)
                 (A) (A) (A) (A) (A) (A) (A) (A) (A) (A) (A) (A)
                 (A) (A) (A) (A) (A) (A) (A) (A) (A) (A) (A) (A)
                 (A) (A) (A) (A) (A) (A) (A) (A) (A) (A) (A) (A)
                 (A) (A) (A) (A) (A) (A) (A) (A) (A) (A) (A) (A)
                 (A) (A) (A) (A) (A) (A) (A) (A) (A) (A) (A) (A)
                 (A) (A) (A) (A) (A) (A) (A) (A) (A) (A) (A) (A)
                 (A) (A) (A) (A) (A) (A) (A) (A) (A) (A) (A) (A)
                 (A) (A) (A) (A)
    12 initial guesses have been made.
 Convergence on wavefunction:    0.001000000000000
 Iteration     1 Dimension    12 NMult     0 NNew     12
 CISAX will form    12 AO SS matrices at one time.
 New state      3 was old state      4
 Iteration     2 Dimension    18 NMult    12 NNew      6
 Iteration     3 Dimension    24 NMult    18 NNew      6
 Iteration     4 Dimension    30 NMult    24 NNew      6
 Iteration     5 Dimension    36 NMult    30 NNew      6
 ***********************************************************************
 Excited states from <AA,BB:AA,BB> singles matrix:
 ***********************************************************************
 
 Ground to excited state transition densities written to RWF  633
 Ground to excited state transition electric dipole moments (Au):
       state          X           Y           Z        Dip. S.      Osc.
         1         8.9142     -0.9965     -0.0001     80.4565      4.2696
         2        -0.0005      0.0001     -0.0298      0.0009      0.0001
         3         0.9707     -0.4001     -0.0002      1.1023      0.0894
 Ground to excited state transition velocity dipole moments (Au):
       state          X           Y           Z        Dip. S.      Osc.
         1        -0.7081      0.0800      0.0000      0.5078      4.2526
         2         0.0000     -0.0000      0.0030      0.0000      0.0001
         3        -0.1164      0.0496      0.0000      0.0160      0.0878
 Ground to excited state transition magnetic dipole moments (Au):
       state          X           Y           Z
         1        -0.0231     -0.2876     -0.0002
         2        -0.0000      0.0002     -0.3419
         3        -0.0095      0.0058     -0.0002
 Ground to excited state transition velocity quadrupole moments (Au):
       state          XX          YY          ZZ          XY          XZ          YZ
         1        -0.0008     -0.0000      0.0000      0.0000      0.1448     -0.0182
         2        -3.2935     -0.0326     -0.0074      0.0549     -0.0002      0.0000
         3        -0.0059     -0.0001     -0.0000      0.0003     -0.0481      0.0094
 <0|del|b> * <b|rxdel|0> + <0|del|b> * <b|delr+rdel|0>
 Rotatory Strengths (R) in cgs (10**-40 erg-esu-cm/Gauss)
       state          XX          YY          ZZ    R(velocity)    E-M Angle
         1      -153.5811    129.7330    -35.1735    -19.6738       91.85
         2        -3.0848     -4.2656     -0.0000     -2.4501       90.00
         3         7.7702      0.0349      0.2941      2.6997        8.41
 1/2[<0|r|b>*<b|rxdel|0> + (<0|rxdel|b>*<b|r|0>)*]
 Rotatory Strengths (R) in cgs (10**-40 erg-esu-cm/Gauss)
       state          XX          YY          ZZ     R(length)
         1       145.5793   -202.6392     -0.0000    -19.0200
         2        -0.0000     -0.0000     -7.2114     -2.4038
         3         6.5165      1.6392     -0.0000      2.7186
  1/2[<0|del|b>*<b|r|0> + (<0|r|b>*<b|del|0>)*] (Au)
       state          X           Y           Z        Dip. S.   Osc.(frdel)
         1        -6.3119     -0.0797     -0.0000      6.3916      4.2611
         2        -0.0000     -0.0000     -0.0001      0.0001      0.0001
         3        -0.1130     -0.0198     -0.0000      0.1329      0.0886

 Excitation energies and oscillator strengths:
 
 Excited State   1:      Singlet-A      2.1660 eV  572.40 nm  f=4.2696  <S**2>=0.000
     148 -> 149        0.70793
 This state for optimization and/or second-order correction.
 Total Energy, E(TD-HF/TD-DFT) =  -1556.30733121    
 Copying the excited state density for this state as the 1-particle RhoCI density.
 
 Excited State   2:      Singlet-A      2.6426 eV  469.17 nm  f=0.0001  <S**2>=0.000
     147 -> 149        0.58560
     148 -> 150       -0.38030
 
 Excited State   3:      Singlet-A      3.3088 eV  374.71 nm  f=0.0894  <S**2>=0.000
     146 -> 149        0.61396
     147 -> 150        0.10885
     148 -> 151        0.31641
 SavETr:  write IOETrn=   770 NScale= 10 NData=  16 NLR=1 NState=    3 LETran=      64.

 **********************************************************************

            Population analysis using the SCF density.

 **********************************************************************

 Orbital symmetries:
       Occupied  (A) (A) (A) (A) (A) (A) (A) (A) (A) (A) (A) (A)
                 (A) (A) (A) (A) (A) (A) (A) (A) (A) (A) (A) (A)
                 (A) (A) (A) (A) (A) (A) (A) (A) (A) (A) (A) (A)
                 (A) (A) (A) (A) (A) (A) (A) (A) (A) (A) (A) (A)
                 (A) (A) (A) (A) (A) (A) (A) (A) (A) (A) (A) (A)
                 (A) (A) (A) (A) (A) (A) (A) (A) (A) (A) (A) (A)
                 (A) (A) (A) (A) (A) (A) (A) (A) (A) (A) (A) (A)
                 (A) (A) (A) (A) (A) (A) (A) (A) (A) (A) (A) (A)
                 (A) (A) (A) (A) (A) (A) (A) (A) (A) (A) (A) (A)
                 (A) (A) (A) (A) (A) (A) (A) (A) (A) (A) (A) (A)
                 (A) (A) (A) (A) (A) (A) (A) (A) (A) (A) (A) (A)
                 (A) (A) (A) (A) (A) (A) (A) (A) (A) (A) (A) (A)
                 (A) (A) (A) (A)
       Virtual   (A) (A) (A) (A) (A) (A) (A) (A) (A) (A) (A) (A)
                 (A) (A) (A) (A) (A) (A) (A) (A) (A) (A) (A) (A)
                 (A) (A) (A) (A) (A) (A) (A) (A) (A) (A) (A) (A)
                 (A) (A) (A) (A) (A) (A) (A) (A) (A) (A) (A) (A)
                 (A) (A) (A) (A) (A) (A) (A) (A) (A) (A) (A) (A)
                 (A) (A) (A) (A) (A) (A) (A) (A) (A) (A) (A) (A)
                 (A) (A) (A) (A) (A) (A) (A) (A) (A) (A) (A) (A)
                 (A) (A) (A) (A) (A) (A) (A) (A) (A) (A) (A) (A)
                 (A) (A) (A) (A) (A) (A) (A) (A) (A) (A) (A) (A)
                 (A) (A) (A) (A) (A) (A) (A) (A) (A) (A) (A) (A)
                 (A) (A) (A) (A) (A) (A) (A) (A) (A) (A) (A) (A)
                 (A) (A) (A) (A) (A) (A) (A) (A) (A) (A) (A) (A)
                 (A) (A) (A) (A) (A) (A) (A) (A) (A) (A) (A) (A)
                 (A) (A) (A) (A) (A) (A) (A) (A) (A) (A) (A) (A)
                 (A) (A) (A) (A) (A) (A) (A) (A) (A) (A) (A) (A)
                 (A) (A) (A) (A) (A) (A) (A) (A) (A) (A) (A) (A)
                 (A) (A) (A) (A) (A) (A) (A) (A) (A) (A) (A) (A)
                 (A) (A) (A) (A) (A) (A) (A) (A) (A) (A) (A) (A)
                 (A) (A) (A) (A) (A) (A) (A) (A) (A) (A) (A) (A)
                 (A) (A) (A) (A) (A) (A) (A) (A) (A) (A) (A) (A)
                 (A) (A) (A) (A) (A) (A) (A) (A) (A) (A) (A) (A)
                 (A) (A) (A) (A) (A) (A) (A) (A) (A) (A) (A) (A)
                 (A) (A) (A) (A) (A) (A) (A) (A) (A) (A) (A) (A)
                 (A) (A) (A) (A) (A) (A) (A) (A) (A) (A) (A) (A)
                 (A) (A) (A) (A) (A) (A) (A) (A) (A) (A) (A) (A)
                 (A) (A) (A) (A) (A) (A) (A) (A) (A) (A) (A) (A)
                 (A) (A) (A) (A) (A) (A) (A) (A) (A) (A) (A) (A)
                 (A) (A) (A) (A) (A) (A) (A) (A) (A) (A) (A) (A)
                 (A) (A) (A) (A) (A) (A) (A) (A) (A) (A) (A) (A)
                 (A) (A) (A) (A) (A) (A) (A) (A) (A) (A) (A) (A)
                 (A) (A) (A) (A) (A) (A) (A) (A) (A) (A) (A) (A)
                 (A) (A) (A) (A) (A) (A) (A) (A) (A) (A) (A) (A)
                 (A) (A) (A) (A) (A) (A) (A) (A) (A) (A) (A) (A)
                 (A) (A) (A) (A) (A) (A) (A) (A) (A) (A) (A) (A)
                 (A) (A) (A) (A) (A) (A) (A) (A) (A) (A) (A) (A)
                 (A) (A) (A) (A) (A) (A) (A) (A) (A) (A) (A) (A)
                 (A) (A) (A) (A) (A) (A) (A) (A) (A) (A) (A) (A)
                 (A) (A) (A) (A) (A) (A) (A) (A) (A) (A) (A) (A)
                 (A) (A) (A) (A) (A) (A) (A) (A) (A) (A) (A) (A)
                 (A) (A) (A) (A) (A) (A) (A) (A) (A) (A) (A) (A)
                 (A) (A) (A) (A) (A) (A) (A) (A) (A) (A) (A) (A)
                 (A) (A) (A) (A) (A) (A) (A) (A) (A) (A) (A) (A)
                 (A) (A) (A) (A) (A) (A) (A) (A) (A) (A) (A) (A)
                 (A) (A) (A) (A) (A) (A) (A) (A) (A) (A) (A) (A)
                 (A) (A) (A) (A) (A) (A) (A) (A) (A) (A) (A) (A)
                 (A) (A) (A) (A) (A) (A) (A) (A) (A) (A) (A) (A)
                 (A) (A) (A) (A) (A) (A) (A) (A) (A) (A) (A) (A)
                 (A) (A) (A) (A) (A) (A) (A) (A) (A) (A) (A) (A)
                 (A) (A) (A) (A) (A) (A) (A) (A) (A) (A) (A) (A)
                 (A) (A) (A) (A) (A) (A) (A) (A) (A) (A) (A) (A)
                 (A) (A) (A) (A) (A) (A) (A) (A) (A) (A) (A) (A)
                 (A) (A) (A) (A) (A) (A) (A) (A) (A) (A) (A) (A)
                 (A) (A) (A) (A) (A) (A) (A) (A) (A) (A) (A) (A)
                 (A) (A) (A) (A) (A) (A) (A) (A) (A) (A) (A) (A)
                 (A) (A) (A) (A) (A) (A) (A) (A) (A) (A) (A) (A)
                 (A) (A) (A) (A) (A) (A) (A) (A) (A) (A) (A) (A)
                 (A) (A) (A) (A) (A) (A) (A) (A) (A) (A) (A) (A)
                 (A) (A) (A) (A) (A) (A) (A) (A) (A) (A) (A) (A)
                 (A) (A) (A) (A) (A) (A) (A) (A) (A) (A) (A) (A)
                 (A) (A) (A) (A) (A) (A) (A) (A) (A) (A) (A) (A)
                 (A) (A) (A) (A) (A) (A) (A) (A) (A) (A) (A) (A)
                 (A) (A) (A) (A) (A) (A) (A) (A) (A) (A) (A) (A)
                 (A) (A) (A) (A) (A) (A) (A) (A) (A) (A) (A) (A)
                 (A) (A) (A) (A) (A) (A) (A) (A) (A) (A) (A) (A)
                 (A) (A) (A) (A) (A) (A) (A) (A) (A) (A) (A) (A)
                 (A) (A) (A) (A) (A) (A) (A) (A) (A) (A) (A) (A)
                 (A) (A) (A) (A) (A) (A) (A) (A) (A) (A) (A) (A)
                 (A) (A) (A) (A) (A) (A) (A) (A) (A) (A) (A) (A)
                 (A) (A) (A) (A) (A) (A) (A) (A) (A) (A) (A) (A)
                 (A) (A) (A) (A) (A) (A) (A) (A) (A) (A) (A) (A)
                 (A) (A) (A) (A) (A) (A) (A) (A) (A) (A) (A) (A)
                 (A) (A) (A) (A) (A) (A) (A) (A) (A) (A) (A) (A)
                 (A) (A) (A) (A) (A) (A) (A) (A) (A) (A) (A) (A)
                 (A) (A) (A) (A) (A) (A) (A) (A) (A) (A) (A) (A)
                 (A) (A) (A) (A) (A) (A) (A) (A) (A) (A) (A) (A)
                 (A) (A) (A) (A) (A) (A) (A) (A) (A) (A) (A) (A)
                 (A) (A) (A) (A) (A) (A) (A) (A) (A) (A) (A) (A)
                 (A) (A) (A) (A) (A) (A) (A) (A) (A) (A) (A) (A)
                 (A) (A) (A) (A) (A) (A) (A) (A) (A) (A) (A) (A)
                 (A) (A) (A) (A) (A) (A) (A) (A) (A) (A) (A) (A)
                 (A) (A) (A) (A) (A) (A) (A) (A) (A) (A) (A) (A)
                 (A) (A) (A) (A) (A) (A) (A) (A) (A) (A) (A) (A)
                 (A) (A) (A) (A) (A) (A) (A) (A) (A) (A) (A) (A)
                 (A) (A) (A) (A) (A) (A) (A) (A) (A) (A) (A) (A)
                 (A) (A) (A) (A) (A) (A) (A) (A) (A) (A) (A) (A)
                 (A) (A) (A) (A) (A) (A) (A) (A) (A) (A) (A) (A)
                 (A) (A) (A) (A) (A) (A) (A) (A) (A) (A) (A) (A)
                 (A) (A) (A) (A) (A) (A) (A) (A) (A) (A) (A) (A)
                 (A) (A) (A) (A) (A) (A) (A) (A) (A) (A) (A) (A)
                 (A) (A) (A) (A) (A) (A) (A) (A) (A) (A) (A) (A)
                 (A) (A) (A) (A) (A) (A) (A) (A) (A) (A) (A) (A)
                 (A) (A) (A) (A) (A) (A) (A) (A) (A) (A) (A) (A)
                 (A) (A) (A) (A)
 The electronic state is 1-A.
 Alpha  occ. eigenvalues --  -10.23905 -10.23904 -10.23694 -10.23693 -10.23485
 Alpha  occ. eigenvalues --  -10.23485 -10.23291 -10.23290 -10.22585 -10.22536
 Alpha  occ. eigenvalues --  -10.22535 -10.22513 -10.22279 -10.22278 -10.22270
 Alpha  occ. eigenvalues --  -10.22270 -10.22159 -10.22158 -10.22104 -10.22104
 Alpha  occ. eigenvalues --  -10.21971 -10.21970 -10.21870 -10.21870 -10.21692
 Alpha  occ. eigenvalues --  -10.21692 -10.21641 -10.21641 -10.21582 -10.21582
 Alpha  occ. eigenvalues --  -10.21529 -10.21529 -10.21362 -10.21361 -10.21136
 Alpha  occ. eigenvalues --  -10.21135 -10.20292 -10.20291 -10.20157 -10.20156
 Alpha  occ. eigenvalues --   -0.87710  -0.87710  -0.86318  -0.85787  -0.84826
 Alpha  occ. eigenvalues --   -0.84201  -0.81649  -0.81153  -0.81144  -0.80259
 Alpha  occ. eigenvalues --   -0.79620  -0.78013  -0.76863  -0.74633  -0.74321
 Alpha  occ. eigenvalues --   -0.72670  -0.71090  -0.71057  -0.70537  -0.70256
 Alpha  occ. eigenvalues --   -0.70137  -0.70130  -0.69539  -0.69494  -0.68747
 Alpha  occ. eigenvalues --   -0.65613  -0.63619  -0.62223  -0.60795  -0.58879
 Alpha  occ. eigenvalues --   -0.58093  -0.58093  -0.56701  -0.56296  -0.55146
 Alpha  occ. eigenvalues --   -0.54792  -0.54126  -0.52998  -0.51897  -0.51495
 Alpha  occ. eigenvalues --   -0.50104  -0.49393  -0.48954  -0.48754  -0.48195
 Alpha  occ. eigenvalues --   -0.47731  -0.46535  -0.46236  -0.45945  -0.45757
 Alpha  occ. eigenvalues --   -0.44692  -0.44402  -0.43947  -0.43654  -0.43602
 Alpha  occ. eigenvalues --   -0.43530  -0.43230  -0.43159  -0.42966  -0.42921
 Alpha  occ. eigenvalues --   -0.42895  -0.42834  -0.41689  -0.41657  -0.41585
 Alpha  occ. eigenvalues --   -0.41431  -0.40718  -0.40189  -0.40022  -0.39888
 Alpha  occ. eigenvalues --   -0.39780  -0.39684  -0.38982  -0.38818  -0.38353
 Alpha  occ. eigenvalues --   -0.38036  -0.37950  -0.37600  -0.37371  -0.37241
 Alpha  occ. eigenvalues --   -0.36760  -0.36288  -0.36046  -0.36044  -0.35862
 Alpha  occ. eigenvalues --   -0.35668  -0.35436  -0.35245  -0.35010  -0.34800
 Alpha  occ. eigenvalues --   -0.34648  -0.34543  -0.34180  -0.33583  -0.32978
 Alpha  occ. eigenvalues --   -0.32907  -0.31869  -0.31783  -0.31473  -0.30876
 Alpha  occ. eigenvalues --   -0.30168  -0.30146  -0.28939  -0.26600  -0.24734
 Alpha  occ. eigenvalues --   -0.22294  -0.19725  -0.17151
 Alpha virt. eigenvalues --   -0.08536  -0.05026  -0.02100   0.01031   0.03520
 Alpha virt. eigenvalues --    0.04731   0.04733   0.05305   0.05453   0.05867
 Alpha virt. eigenvalues --    0.06051   0.06202   0.06284   0.06583   0.07175
 Alpha virt. eigenvalues --    0.07484   0.07674   0.07919   0.07940   0.08427
 Alpha virt. eigenvalues --    0.08809   0.08942   0.09182   0.09318   0.09587
 Alpha virt. eigenvalues --    0.09820   0.09831   0.09885   0.10199   0.10393
 Alpha virt. eigenvalues --    0.11079   0.11378   0.11423   0.12288   0.12329
 Alpha virt. eigenvalues --    0.12632   0.12846   0.13282   0.13631   0.13708
 Alpha virt. eigenvalues --    0.13967   0.14009   0.14036   0.14072   0.14244
 Alpha virt. eigenvalues --    0.14286   0.14304   0.15529   0.15659   0.15858
 Alpha virt. eigenvalues --    0.15862   0.16263   0.16319   0.16556   0.16933
 Alpha virt. eigenvalues --    0.16974   0.17698   0.17749   0.17972   0.18192
 Alpha virt. eigenvalues --    0.18298   0.18546   0.18548   0.19267   0.19284
 Alpha virt. eigenvalues --    0.19526   0.20186   0.20459   0.20460   0.21180
 Alpha virt. eigenvalues --    0.21195   0.21908   0.22252   0.22616   0.22627
 Alpha virt. eigenvalues --    0.23245   0.23536   0.23942   0.23964   0.24406
 Alpha virt. eigenvalues --    0.24483   0.25424   0.25463   0.25473   0.25792
 Alpha virt. eigenvalues --    0.26404   0.26459   0.27408   0.27729   0.28151
 Alpha virt. eigenvalues --    0.28336   0.28999   0.29428   0.29520   0.30756
 Alpha virt. eigenvalues --    0.30767   0.30879   0.30982   0.31042   0.31598
 Alpha virt. eigenvalues --    0.31810   0.32023   0.32479   0.32572   0.32929
 Alpha virt. eigenvalues --    0.33140   0.33499   0.33651   0.33859   0.33884
 Alpha virt. eigenvalues --    0.34239   0.34687   0.34785   0.35010   0.35212
 Alpha virt. eigenvalues --    0.35345   0.35589   0.36285   0.36480   0.36869
 Alpha virt. eigenvalues --    0.36878   0.37045   0.37351   0.39113   0.39151
 Alpha virt. eigenvalues --    0.39719   0.39776   0.40186   0.40335   0.40532
 Alpha virt. eigenvalues --    0.40690   0.41015   0.41197   0.41290   0.41298
 Alpha virt. eigenvalues --    0.41631   0.42003   0.42501   0.42618   0.42773
 Alpha virt. eigenvalues --    0.43184   0.43828   0.44053   0.44056   0.44476
 Alpha virt. eigenvalues --    0.44660   0.44703   0.44724   0.45274   0.45483
 Alpha virt. eigenvalues --    0.45683   0.46088   0.46094   0.46188   0.46309
 Alpha virt. eigenvalues --    0.46579   0.46633   0.46845   0.47363   0.47478
 Alpha virt. eigenvalues --    0.47546   0.47733   0.47930   0.47952   0.49013
 Alpha virt. eigenvalues --    0.49228   0.49856   0.50036   0.50536   0.50592
 Alpha virt. eigenvalues --    0.50927   0.51022   0.51114   0.51292   0.51464
 Alpha virt. eigenvalues --    0.52156   0.52485   0.52705   0.53101   0.53206
 Alpha virt. eigenvalues --    0.53608   0.53952   0.54418   0.54447   0.54535
 Alpha virt. eigenvalues --    0.54808   0.55307   0.55478   0.55661   0.55707
 Alpha virt. eigenvalues --    0.55847   0.55991   0.56058   0.56203   0.56247
 Alpha virt. eigenvalues --    0.56531   0.56573   0.56799   0.56801   0.56987
 Alpha virt. eigenvalues --    0.57107   0.57143   0.57218   0.57618   0.58181
 Alpha virt. eigenvalues --    0.58252   0.58552   0.58673   0.58846   0.58943
 Alpha virt. eigenvalues --    0.59031   0.59099   0.59540   0.59799   0.59813
 Alpha virt. eigenvalues --    0.59869   0.60115   0.60120   0.60304   0.60613
 Alpha virt. eigenvalues --    0.60700   0.60803   0.61042   0.61208   0.61271
 Alpha virt. eigenvalues --    0.61659   0.61821   0.61825   0.61965   0.62277
 Alpha virt. eigenvalues --    0.62528   0.62688   0.62921   0.63099   0.63276
 Alpha virt. eigenvalues --    0.63416   0.63667   0.63748   0.64221   0.64396
 Alpha virt. eigenvalues --    0.64539   0.64599   0.64709   0.64825   0.64869
 Alpha virt. eigenvalues --    0.65134   0.65246   0.66380   0.66517   0.66839
 Alpha virt. eigenvalues --    0.67029   0.67218   0.67352   0.67513   0.67827
 Alpha virt. eigenvalues --    0.68918   0.69505   0.69560   0.69685   0.69940
 Alpha virt. eigenvalues --    0.70412   0.70701   0.71075   0.71195   0.71615
 Alpha virt. eigenvalues --    0.71708   0.71793   0.72024   0.72839   0.72935
 Alpha virt. eigenvalues --    0.73291   0.73456   0.73901   0.74228   0.74355
 Alpha virt. eigenvalues --    0.75603   0.75710   0.75908   0.76492   0.76502
 Alpha virt. eigenvalues --    0.76850   0.76969   0.77390   0.77509   0.77662
 Alpha virt. eigenvalues --    0.78162   0.78983   0.79018   0.79306   0.79352
 Alpha virt. eigenvalues --    0.80154   0.80283   0.80772   0.80961   0.81242
 Alpha virt. eigenvalues --    0.81702   0.81714   0.81930   0.82483   0.83132
 Alpha virt. eigenvalues --    0.83590   0.83939   0.84272   0.84608   0.85047
 Alpha virt. eigenvalues --    0.85280   0.85444   0.86589   0.86979   0.87354
 Alpha virt. eigenvalues --    0.87536   0.87874   0.88277   0.88539   0.88859
 Alpha virt. eigenvalues --    0.89170   0.89187   0.89418   0.90281   0.90465
 Alpha virt. eigenvalues --    0.90492   0.91436   0.91541   0.91885   0.91905
 Alpha virt. eigenvalues --    0.92450   0.92537   0.92807   0.94122   0.94449
 Alpha virt. eigenvalues --    0.94790   0.95017   0.95066   0.95954   0.96222
 Alpha virt. eigenvalues --    0.96752   0.97130   0.97360   0.97614   0.97750
 Alpha virt. eigenvalues --    0.98760   0.98954   0.99282   1.00064   1.00355
 Alpha virt. eigenvalues --    1.00521   1.01163   1.01336   1.01622   1.01725
 Alpha virt. eigenvalues --    1.01854   1.02978   1.03622   1.03714   1.03886
 Alpha virt. eigenvalues --    1.04234   1.04533   1.04562   1.04813   1.05047
 Alpha virt. eigenvalues --    1.05151   1.05367   1.05772   1.06124   1.06342
 Alpha virt. eigenvalues --    1.06424   1.06491   1.07004   1.07835   1.08235
 Alpha virt. eigenvalues --    1.08390   1.08557   1.08939   1.09278   1.09286
 Alpha virt. eigenvalues --    1.09528   1.09558   1.10293   1.10446   1.11122
 Alpha virt. eigenvalues --    1.11613   1.11769   1.13337   1.13355   1.13658
 Alpha virt. eigenvalues --    1.14124   1.15020   1.15291   1.15631   1.15872
 Alpha virt. eigenvalues --    1.16076   1.16416   1.16527   1.17096   1.17285
 Alpha virt. eigenvalues --    1.17485   1.17942   1.18391   1.18586   1.19113
 Alpha virt. eigenvalues --    1.19226   1.19620   1.19668   1.20546   1.21021
 Alpha virt. eigenvalues --    1.21162   1.22132   1.22174   1.22745   1.22835
 Alpha virt. eigenvalues --    1.22940   1.23790   1.23895   1.24034   1.24659
 Alpha virt. eigenvalues --    1.24814   1.25121   1.25130   1.26051   1.26120
 Alpha virt. eigenvalues --    1.26249   1.26284   1.26443   1.26558   1.27600
 Alpha virt. eigenvalues --    1.27688   1.27766   1.28217   1.28441   1.28715
 Alpha virt. eigenvalues --    1.28722   1.29847   1.29906   1.30292   1.30580
 Alpha virt. eigenvalues --    1.31463   1.31717   1.32216   1.33034   1.33228
 Alpha virt. eigenvalues --    1.33401   1.33659   1.33927   1.34103   1.34435
 Alpha virt. eigenvalues --    1.35038   1.35046   1.35839   1.36010   1.36188
 Alpha virt. eigenvalues --    1.36622   1.36929   1.37562   1.37941   1.38087
 Alpha virt. eigenvalues --    1.38289   1.38563   1.39825   1.39966   1.40455
 Alpha virt. eigenvalues --    1.41217   1.41936   1.42350   1.42950   1.43111
 Alpha virt. eigenvalues --    1.44604   1.44816   1.45542   1.46370   1.46624
 Alpha virt. eigenvalues --    1.47119   1.47385   1.47480   1.47798   1.47883
 Alpha virt. eigenvalues --    1.48031   1.48318   1.49020   1.49841   1.50231
 Alpha virt. eigenvalues --    1.50966   1.51203   1.51899   1.52437   1.52810
 Alpha virt. eigenvalues --    1.53396   1.53552   1.54199   1.54439   1.55693
 Alpha virt. eigenvalues --    1.56448   1.56495   1.56625   1.56874   1.57352
 Alpha virt. eigenvalues --    1.58173   1.58215   1.59137   1.59411   1.59821
 Alpha virt. eigenvalues --    1.59995   1.61662   1.61949   1.61961   1.62759
 Alpha virt. eigenvalues --    1.62856   1.63284   1.63313   1.64179   1.64968
 Alpha virt. eigenvalues --    1.65317   1.65767   1.67362   1.67881   1.68834
 Alpha virt. eigenvalues --    1.69233   1.69982   1.70367   1.70548   1.70810
 Alpha virt. eigenvalues --    1.71197   1.71708   1.71824   1.72768   1.72773
 Alpha virt. eigenvalues --    1.73350   1.73357   1.73504   1.73733   1.75194
 Alpha virt. eigenvalues --    1.75381   1.76283   1.76500   1.76735   1.77511
 Alpha virt. eigenvalues --    1.77814   1.79101   1.79157   1.79474   1.79549
 Alpha virt. eigenvalues --    1.80064   1.80124   1.82345   1.82444   1.83534
 Alpha virt. eigenvalues --    1.83995   1.84383   1.85314   1.85331   1.87280
 Alpha virt. eigenvalues --    1.87289   1.87980   1.88566   1.88593   1.89642
 Alpha virt. eigenvalues --    1.89657   1.91141   1.91229   1.91862   1.92285
 Alpha virt. eigenvalues --    1.92608   1.92638   1.94687   1.94905   1.95297
 Alpha virt. eigenvalues --    1.95871   1.97393   1.97405   1.98608   1.99149
 Alpha virt. eigenvalues --    2.00295   2.00306   2.00840   2.01403   2.01884
 Alpha virt. eigenvalues --    2.02093   2.02783   2.02823   2.03105   2.04015
 Alpha virt. eigenvalues --    2.04186   2.04257   2.05130   2.05594   2.06769
 Alpha virt. eigenvalues --    2.07017   2.07274   2.07833   2.09225   2.09369
 Alpha virt. eigenvalues --    2.10718   2.10751   2.11794   2.13930   2.14038
 Alpha virt. eigenvalues --    2.14262   2.15219   2.15392   2.17814   2.17834
 Alpha virt. eigenvalues --    2.18666   2.18872   2.20045   2.20100   2.20480
 Alpha virt. eigenvalues --    2.20515   2.20885   2.20907   2.21048   2.21117
 Alpha virt. eigenvalues --    2.21728   2.22050   2.23886   2.23908   2.24213
 Alpha virt. eigenvalues --    2.25823   2.26061   2.26416   2.26471   2.26728
 Alpha virt. eigenvalues --    2.26759   2.26786   2.27370   2.27577   2.27799
 Alpha virt. eigenvalues --    2.28622   2.29130   2.29201   2.29526   2.29557
 Alpha virt. eigenvalues --    2.30709   2.30775   2.31505   2.31945   2.32241
 Alpha virt. eigenvalues --    2.32282   2.33291   2.33525   2.33681   2.33943
 Alpha virt. eigenvalues --    2.34044   2.34318   2.34825   2.35083   2.35278
 Alpha virt. eigenvalues --    2.35919   2.36033   2.36683   2.37045   2.37096
 Alpha virt. eigenvalues --    2.37528   2.39051   2.39661   2.40799   2.41863
 Alpha virt. eigenvalues --    2.43025   2.43353   2.43361   2.43622   2.43836
 Alpha virt. eigenvalues --    2.44675   2.46005   2.46077   2.46992   2.47096
 Alpha virt. eigenvalues --    2.47321   2.47359   2.47989   2.48819   2.49309
 Alpha virt. eigenvalues --    2.49467   2.50373   2.50393   2.51832   2.51858
 Alpha virt. eigenvalues --    2.52712   2.52722   2.52888   2.52983   2.53453
 Alpha virt. eigenvalues --    2.53714   2.55673   2.55678   2.58393   2.58496
 Alpha virt. eigenvalues --    2.58902   2.58936   2.59003   2.59478   2.61199
 Alpha virt. eigenvalues --    2.61243   2.62954   2.63014   2.65045   2.65328
 Alpha virt. eigenvalues --    2.66342   2.66401   2.66693   2.67136   2.67762
 Alpha virt. eigenvalues --    2.67887   2.69281   2.70248   2.71037   2.71139
 Alpha virt. eigenvalues --    2.71323   2.71341   2.71772   2.72034   2.72978
 Alpha virt. eigenvalues --    2.73463   2.73578   2.73675   2.74368   2.75646
 Alpha virt. eigenvalues --    2.75907   2.76078   2.76086   2.77379   2.77641
 Alpha virt. eigenvalues --    2.77999   2.78118   2.78543   2.78647   2.79164
 Alpha virt. eigenvalues --    2.80243   2.81037   2.81048   2.81789   2.81860
 Alpha virt. eigenvalues --    2.82577   2.82673   2.83276   2.84620   2.85023
 Alpha virt. eigenvalues --    2.86402   2.86412   2.87327   2.87785   2.87825
 Alpha virt. eigenvalues --    2.88368   2.89079   2.89324   2.89581   2.89877
 Alpha virt. eigenvalues --    2.90008   2.92113   2.92320   2.93083   2.93413
 Alpha virt. eigenvalues --    2.93875   2.94621   2.94770   2.95848   2.96663
 Alpha virt. eigenvalues --    2.97089   2.97594   2.98488   2.98541   2.99922
 Alpha virt. eigenvalues --    3.00048   3.00121   3.00289   3.01103   3.02372
 Alpha virt. eigenvalues --    3.02813   3.03411   3.03524   3.07124   3.07456
 Alpha virt. eigenvalues --    3.10698   3.10834   3.11313   3.11317   3.11623
 Alpha virt. eigenvalues --    3.11982   3.13347   3.13382   3.14079   3.15882
 Alpha virt. eigenvalues --    3.16473   3.16775   3.16922   3.16969   3.17265
 Alpha virt. eigenvalues --    3.17268   3.17878   3.18458   3.18603   3.19447
 Alpha virt. eigenvalues --    3.19471   3.20191   3.20561   3.20867   3.21838
 Alpha virt. eigenvalues --    3.21953   3.22199   3.22428   3.23837   3.23943
 Alpha virt. eigenvalues --    3.24698   3.25043   3.25636   3.26249   3.26952
 Alpha virt. eigenvalues --    3.27118   3.27276   3.28005   3.28155   3.28966
 Alpha virt. eigenvalues --    3.28973   3.29348   3.30032   3.30584   3.31221
 Alpha virt. eigenvalues --    3.31829   3.31877   3.32262   3.32695   3.33196
 Alpha virt. eigenvalues --    3.33347   3.33553   3.33804   3.34113   3.34176
 Alpha virt. eigenvalues --    3.34381   3.34680   3.35089   3.36171   3.36573
 Alpha virt. eigenvalues --    3.37004   3.37086   3.37836   3.37917   3.38110
 Alpha virt. eigenvalues --    3.38671   3.39508   3.39720   3.40438   3.40448
 Alpha virt. eigenvalues --    3.41228   3.41414   3.41663   3.41988   3.42596
 Alpha virt. eigenvalues --    3.42778   3.42863   3.43941   3.44567   3.44839
 Alpha virt. eigenvalues --    3.45531   3.45580   3.46506   3.46788   3.47342
 Alpha virt. eigenvalues --    3.47648   3.47834   3.48761   3.49554   3.50053
 Alpha virt. eigenvalues --    3.50307   3.50824   3.50858   3.51808   3.51822
 Alpha virt. eigenvalues --    3.51985   3.52272   3.52502   3.53335   3.53355
 Alpha virt. eigenvalues --    3.53983   3.54058   3.54473   3.54698   3.55152
 Alpha virt. eigenvalues --    3.55286   3.55513   3.55817   3.56208   3.56368
 Alpha virt. eigenvalues --    3.57217   3.57388   3.57537   3.57986   3.58026
 Alpha virt. eigenvalues --    3.58316   3.58410   3.58641   3.59662   3.59764
 Alpha virt. eigenvalues --    3.60494   3.60561   3.60622   3.61103   3.61866
 Alpha virt. eigenvalues --    3.62258   3.62281   3.62434   3.62457   3.63874
 Alpha virt. eigenvalues --    3.64028   3.64179   3.64576   3.64605   3.65140
 Alpha virt. eigenvalues --    3.65501   3.66047   3.66589   3.66603   3.67011
 Alpha virt. eigenvalues --    3.67431   3.67576   3.67598   3.67819   3.68166
 Alpha virt. eigenvalues --    3.68293   3.68477   3.68627   3.68963   3.69045
 Alpha virt. eigenvalues --    3.69174   3.69640   3.69979   3.70420   3.70821
 Alpha virt. eigenvalues --    3.71305   3.71685   3.71793   3.72662   3.72938
 Alpha virt. eigenvalues --    3.73059   3.74126   3.74220   3.74931   3.74991
 Alpha virt. eigenvalues --    3.75355   3.75491   3.75925   3.76656   3.76999
 Alpha virt. eigenvalues --    3.77097   3.77863   3.77869   3.78057   3.78375
 Alpha virt. eigenvalues --    3.78775   3.79599   3.80415   3.80568   3.81042
 Alpha virt. eigenvalues --    3.81531   3.82005   3.82150   3.82322   3.82570
 Alpha virt. eigenvalues --    3.83632   3.83952   3.84579   3.84638   3.85884
 Alpha virt. eigenvalues --    3.87256   3.88123   3.88289   3.89098   3.89121
 Alpha virt. eigenvalues --    3.89727   3.90275   3.91158   3.91182   3.91697
 Alpha virt. eigenvalues --    3.92342   3.92530   3.93418   3.94209   3.94757
 Alpha virt. eigenvalues --    3.96998   3.97825   3.98687   3.98722   4.00501
 Alpha virt. eigenvalues --    4.01195   4.01253   4.01652   4.02405   4.02498
 Alpha virt. eigenvalues --    4.03272   4.05472   4.08901   4.09625   4.10257
 Alpha virt. eigenvalues --    4.10663   4.10826   4.12521   4.14180   4.15135
 Alpha virt. eigenvalues --    4.16012   4.16856   4.17191   4.18650   4.19609
 Alpha virt. eigenvalues --    4.19909   4.21521   4.21825   4.22301   4.22420
 Alpha virt. eigenvalues --    4.22494   4.22521   4.23440   4.23465   4.24162
 Alpha virt. eigenvalues --    4.24317   4.24718   4.24736   4.25199   4.25798
 Alpha virt. eigenvalues --    4.26802   4.26871   4.27602   4.27622   4.28632
 Alpha virt. eigenvalues --    4.28653   4.29655   4.29658   4.30194   4.30203
 Alpha virt. eigenvalues --    4.32042   4.32047   4.34282   4.34294   4.36213
 Alpha virt. eigenvalues --    4.36534   4.37424   4.37821   4.39702   4.39811
 Alpha virt. eigenvalues --    4.44120   4.44126   4.49767   4.50090   4.50093
 Alpha virt. eigenvalues --    4.50699   4.50704   4.53912   4.54460   4.54800
 Alpha virt. eigenvalues --    4.55103   4.61325   4.62061   4.62073   4.64299
 Alpha virt. eigenvalues --    4.64417   4.64934   4.65239   4.66324   4.66356
 Alpha virt. eigenvalues --    4.70494   4.70508   4.75005   4.78392   4.81508
 Alpha virt. eigenvalues --    4.85685   4.89953   4.94842   5.03320   5.12239
 Alpha virt. eigenvalues --    5.22010   5.31069   5.37111  23.85068  23.85808
 Alpha virt. eigenvalues --   23.87863  23.92038  23.93084  23.94655  23.96473
 Alpha virt. eigenvalues --   23.97973  24.00052  24.00235  24.00571  24.01024
 Alpha virt. eigenvalues --   24.03298  24.03576  24.03694  24.07212  24.07367
 Alpha virt. eigenvalues --   24.09751  24.09767  24.13088  24.13181  24.14165
 Alpha virt. eigenvalues --   24.14938  24.15191  24.15453  24.16973  24.19542
 Alpha virt. eigenvalues --   24.20211  24.21462  24.21625  24.23012  24.23281
 Alpha virt. eigenvalues --   24.26141  24.27142  24.29474  24.29511  24.30441
 Alpha virt. eigenvalues --   24.30896  24.38535  24.38544
          Condensed to atoms (all electrons):
 Mulliken charges:
               1
     1  C   -0.334949
     2  C   -0.118799
     3  C   -0.167786
     4  C   -0.187491
     5  C   -0.013322
     6  C    0.148626
     7  C   -0.335395
     8  C   -0.241409
     9  C   -0.225536
    10  C   -0.077703
    11  C   -0.155815
    12  C    0.110922
    13  C   -0.127860
    14  C   -0.048968
    15  C   -0.130945
    16  C    0.083069
    17  C   -0.110674
    18  C   -0.057152
    19  C   -0.057154
    20  C   -0.110674
    21  C    0.083068
    22  C   -0.130942
    23  C   -0.048976
    24  C   -0.127859
    25  C    0.110923
    26  C   -0.155874
    27  C   -0.077572
    28  C   -0.318003
    29  C   -0.317088
    30  C   -0.317088
    31  C   -0.318006
    32  C    0.148525
    33  C   -0.334877
    34  C   -0.118783
    35  C   -0.167777
    36  C   -0.187568
    37  C   -0.013282
    38  C   -0.335331
    39  C   -0.241411
    40  C   -0.225560
    41  H    0.086341
    42  H    0.083845
    43  H    0.084386
    44  H    0.093204
    45  H    0.104684
    46  H    0.101020
    47  H    0.121002
    48  H    0.124429
    49  H    0.108300
    50  H    0.107902
    51  H    0.100561
    52  H    0.100653
    53  H    0.106079
    54  H    0.098547
    55  H    0.102116
    56  H    0.064774
    57  H    0.061604
    58  H    0.052776
    59  H    0.063701
    60  H    0.052303
    61  H    0.054256
    62  H    0.058460
    63  H    0.058461
    64  H    0.054256
    65  H    0.052302
    66  H    0.063699
    67  H    0.052774
    68  H    0.061603
    69  H    0.064759
    70  H    0.121965
    71  H    0.102018
    72  H    0.122229
    73  H    0.122503
    74  H    0.122528
    75  H    0.104083
    76  H    0.104084
    77  H    0.122501
    78  H    0.122530
    79  H    0.102020
    80  H    0.122235
    81  H    0.121959
    82  H    0.083841
    83  H    0.086337
    84  H    0.084387
    85  H    0.093204
    86  H    0.104682
    87  H    0.101014
    88  H    0.120957
    89  H    0.124391
    90  H    0.108343
    91  H    0.107910
    92  H    0.100565
    93  H    0.100646
    94  H    0.106107
    95  H    0.098547
    96  H    0.102108
 Sum of Mulliken charges =  -0.00000
 Mulliken charges with hydrogens summed into heavy atoms:
               1
     1  C   -0.334949
     2  C    0.051387
     3  C    0.009804
     4  C    0.018213
     5  C   -0.013322
     6  C    0.148626
     7  C    0.018337
     8  C    0.067708
     9  C    0.081207
    10  C   -0.012929
    11  C   -0.094211
    12  C    0.110922
    13  C   -0.075084
    14  C    0.014732
    15  C   -0.078642
    16  C    0.083069
    17  C   -0.056418
    18  C    0.001308
    19  C    0.001307
    20  C   -0.056418
    21  C    0.083068
    22  C   -0.078639
    23  C    0.014723
    24  C   -0.075085
    25  C    0.110923
    26  C   -0.094271
    27  C   -0.012812
    28  C    0.028210
    29  C    0.032026
    30  C    0.032027
    31  C    0.028208
    32  C    0.148525
    33  C   -0.334877
    34  C    0.051395
    35  C    0.009814
    36  C    0.018128
    37  C   -0.013282
    38  C    0.018360
    39  C    0.067710
    40  C    0.081202
 Electronic spatial extent (au):  <R**2>=         104510.6535
 Charge=              0.0000 electrons
 Dipole moment (field-independent basis, Debye):
    X=              0.0012    Y=             -0.0000    Z=             -0.3162  Tot=              0.3162
 Quadrupole moment (field-independent basis, Debye-Ang):
   XX=           -186.2596   YY=           -231.9175   ZZ=           -259.8188
   XY=            -11.0789   XZ=             -0.0001   YZ=              0.0082
 Traceless Quadrupole moment (field-independent basis, Debye-Ang):
   XX=             39.7390   YY=             -5.9189   ZZ=            -33.8201
   XY=            -11.0789   XZ=             -0.0001   YZ=              0.0082
 Octapole moment (field-independent basis, Debye-Ang**2):
  XXX=              0.3169  YYY=             -0.0030  ZZZ=             -5.3754  XYY=              0.0124
  XXY=             -0.0177  XXZ=            -58.1163  XZZ=             -0.0085  YZZ=              0.0029
  YYZ=              0.5061  XYZ=              8.2243
 Hexadecapole moment (field-independent basis, Debye-Ang**3):
 XXXX=        -124475.0967 YYYY=          -4077.3803 ZZZZ=           -824.3217 XXXY=          -1442.3890
 XXXZ=              0.7915 YYYX=           -158.0239 YYYZ=              0.0107 ZZZX=             -0.0289
 ZZZY=              0.0350 XXYY=         -23344.0446 XXZZ=         -24236.3782 YYZZ=           -834.0726
 XXYZ=              0.2111 YYXZ=             -0.0850 ZZXY=            -25.5429
 N-N= 3.637160555788D+03 E-N=-1.088206409686D+04  KE= 1.548533305534D+03
 1\1\GINC-CN07\SP\RPBE1PBE TD-FC\6-311G(2d,p)\C40H56\2100011837\25-Oct-
 2023\0\\# td PBE1PBE/6-311g(2d,p)\\5\\0,1\C,0,-11.734347,-1.46327,0.19
 7823\C,0,-13.19338,-1.964978,0.357528\C,0,-14.150305,-1.366251,-0.6669
 75\C,0,-14.197879,0.145991,-0.470499\C,0,-12.839809,0.781151,-0.266473
 \C,0,-11.6992,0.069135,-0.020735\C,0,-12.878548,2.293672,-0.399781\C,0
 ,-11.0146,-1.853889,1.513038\C,0,-11.087804,-2.2093,-0.996519\C,0,-10.
 43465,0.808656,0.027994\C,0,-9.147712,0.368476,0.051748\C,0,-7.970994,
 1.218788,0.064208\C,0,-6.738494,0.618732,0.070151\C,0,-5.445853,1.2379
 56,0.078711\C,0,-4.280345,0.525898,0.081573\C,0,-2.942615,1.063559,0.0
 8665\C,0,-1.885537,0.184962,0.08738\C,0,-0.488371,0.479787,0.089053\C,
 0,0.488347,-0.479969,0.088801\C,0,1.885511,-0.185136,0.087475\C,0,2.94
 26,-1.06372,0.086252\C,0,4.280317,-0.526037,0.081579\C,0,5.44584,-1.23
 8065,0.078089\C,0,6.738463,-0.618803,0.07\C,0,7.970984,-1.218814,0.063
 575\C,0,9.147663,-0.368436,0.051849\C,0,10.434624,-0.808549,0.027759\C
 ,0,-8.156553,2.71715,0.069156\C,0,-2.769508,2.564166,0.089783\C,0,2.76
 9517,-2.564327,0.08844\C,0,8.156583,-2.717179,0.067262\C,0,11.699201,-
 0.069059,-0.020403\C,0,11.734174,1.463486,0.197241\C,0,13.193129,1.965
 583,0.35651\C,0,14.150188,1.366019,-0.667374\C,0,14.198042,-0.14598,-0
 .469211\C,0,12.84001,-0.781172,-0.264991\C,0,12.879257,-2.293768,-0.39
 6971\C,0,11.014549,1.85474,1.512348\C,0,11.087391,2.208725,-0.997464\H
 ,0,-13.552321,-1.703956,1.363685\H,0,-13.192047,-3.061404,0.303248\H,0
 ,-15.153264,-1.798105,-0.563126\H,0,-13.81314,-1.597981,-1.685258\H,0,
 -14.836724,0.392993,0.394939\H,0,-14.685037,0.631223,-1.329306\H,0,-12
 .325572,2.809643,0.392261\H,0,-12.466482,2.63312,-1.360193\H,0,-13.913
 425,2.649109,-0.353524\H,0,-11.416556,-1.280703,2.356288\H,0,-11.18386
 7,-2.918184,1.719753\H,0,-9.936176,-1.690791,1.488324\H,0,-10.062409,-
 1.885242,-1.187849\H,0,-11.067666,-3.288842,-0.800474\H,0,-11.653264,-
 2.045445,-1.920085\H,0,-10.55322,1.886292,0.000541\H,0,-8.931611,-0.69
 4439,0.047554\H,0,-6.727213,-0.472334,0.066433\H,0,-5.394175,2.323265,
 0.081444\H,0,-4.354088,-0.562482,0.078481\H,0,-2.136452,-0.876804,0.08
 5428\H,0,-0.172475,1.521613,0.089536\H,0,0.172451,-1.521796,0.088568\H
 ,0,2.136416,0.876634,0.086232\H,0,4.354044,0.562348,0.079364\H,0,5.394
 192,-2.323379,0.079909\H,0,6.727154,0.472266,0.067137\H,0,8.931483,0.6
 9446,0.048557\H,0,10.553176,-1.886154,-0.000703\H,0,-8.743395,3.036257
 ,0.939921\H,0,-7.209108,3.257895,0.093049\H,0,-8.704911,3.047382,-0.82
 252\H,0,-3.241932,3.01389,-0.792798\H,0,-3.248496,3.010862,0.970351\H,
 0,-1.721474,2.867936,0.094306\H,0,1.721486,-2.86812,0.09284\H,0,3.2418
 91,-3.013511,-0.794442\H,0,3.248565,-3.01155,0.968706\H,0,7.209159,-3.
 257966,0.091008\H,0,8.704687,-3.046679,-0.824841\H,0,8.743681,-3.03697
 8,0.937599\H,0,13.191601,3.061957,0.301212\H,0,13.552096,1.705563,1.36
 2915\H,0,15.153054,1.798199,-0.563974\H,0,13.812978,1.596575,-1.685912
 \H,0,14.836658,-0.391875,0.396706\H,0,14.685561,-0.632101,-1.327317\H,
 0,12.323558,-2.809301,0.393398\H,0,12.470743,-2.633888,-1.35869\H,0,13
 .914032,-2.649023,-0.346838\H,0,11.416667,1.282028,2.355841\H,0,11.183
 77,2.919158,1.718473\H,0,9.936132,1.691574,1.487888\H,0,10.062138,1.88
 418,-1.188707\H,0,11.066849,3.288348,-0.801914\H,0,11.652983,2.044667,
 -1.920915\\Version=ES64L-G16RevA.03\State=1-A\HF=-1556.3869314\RMSD=5.
 209e-09\PG=C01 [X(C40H56)]\\@


 I CLAIM NOT TO HAVE CONTROLLED EVENTS,
 BUT CONFESS PLAINLY THAT EVENTS HAVE CONTROLLED ME.

                                         A. LINCOLN
 Job cpu time:       0 days  4 hours 52 minutes 15.8 seconds.
 Elapsed time:       0 days  0 hours 14 minutes 40.8 seconds.
 File lengths (MBytes):  RWF=   5824 Int=      0 D2E=      0 Chk=    272 Scr=     32
 Normal termination of Gaussian 16 at Wed Oct 25 13:18:01 2023.
