 Entering Gaussian System, Link 0=g16
 Input=6.gjf
 Output=6.log
 Initial command:
 /nfs-share/home/2100011837/g16/l1.exe "/nfs-share/home/2100011837/g16tmp/Gau-174243.inp" -scrdir="/nfs-share/home/2100011837/g16tmp/"
 Entering Link 1 = /nfs-share/home/2100011837/g16/l1.exe PID=    174244.
  
 Copyright (c) 1988,1990,1992,1993,1995,1998,2003,2009,2016,
            Gaussian, Inc.  All Rights Reserved.
  
 This is part of the Gaussian(R) 16 program.  It is based on
 the Gaussian(R) 09 system (copyright 2009, Gaussian, Inc.),
 the Gaussian(R) 03 system (copyright 2003, Gaussian, Inc.),
 the Gaussian(R) 98 system (copyright 1998, Gaussian, Inc.),
 the Gaussian(R) 94 system (copyright 1995, Gaussian, Inc.),
 the Gaussian 92(TM) system (copyright 1992, Gaussian, Inc.),
 the Gaussian 90(TM) system (copyright 1990, Gaussian, Inc.),
 the Gaussian 88(TM) system (copyright 1988, Gaussian, Inc.),
 the Gaussian 86(TM) system (copyright 1986, Carnegie Mellon
 University), and the Gaussian 82(TM) system (copyright 1983,
 Carnegie Mellon University). Gaussian is a federally registered
 trademark of Gaussian, Inc.
  
 This software contains proprietary and confidential information,
 including trade secrets, belonging to Gaussian, Inc.
  
 This software is provided under written license and may be
 used, copied, transmitted, or stored only in accord with that
 written license.
  
 The following legend is applicable only to US Government
 contracts under FAR:
  
                    RESTRICTED RIGHTS LEGEND
  
 Use, reproduction and disclosure by the US Government is
 subject to restrictions as set forth in subparagraphs (a)
 and (c) of the Commercial Computer Software - Restricted
 Rights clause in FAR 52.227-19.
  
 Gaussian, Inc.
 340 Quinnipiac St., Bldg. 40, Wallingford CT 06492
  
  
 ---------------------------------------------------------------
 Warning -- This program may not be used in any manner that
 competes with the business of Gaussian, Inc. or will provide
 assistance to any competitor of Gaussian, Inc.  The licensee
 of this program is prohibited from giving any competitor of
 Gaussian, Inc. access to this program.  By using this program,
 the user acknowledges that Gaussian, Inc. is engaged in the
 business of creating and licensing software in the field of
 computational chemistry and represents and warrants to the
 licensee that it is not a competitor of Gaussian, Inc. and that
 it will not use this program in any manner prohibited above.
 ---------------------------------------------------------------
  

 Cite this work as:
 Gaussian 16, Revision A.03,
 M. J. Frisch, G. W. Trucks, H. B. Schlegel, G. E. Scuseria, 
 M. A. Robb, J. R. Cheeseman, G. Scalmani, V. Barone, 
 G. A. Petersson, H. Nakatsuji, X. Li, M. Caricato, A. V. Marenich, 
 J. Bloino, B. G. Janesko, R. Gomperts, B. Mennucci, H. P. Hratchian, 
 J. V. Ortiz, A. F. Izmaylov, J. L. Sonnenberg, D. Williams-Young, 
 F. Ding, F. Lipparini, F. Egidi, J. Goings, B. Peng, A. Petrone, 
 T. Henderson, D. Ranasinghe, V. G. Zakrzewski, J. Gao, N. Rega, 
 G. Zheng, W. Liang, M. Hada, M. Ehara, K. Toyota, R. Fukuda, 
 J. Hasegawa, M. Ishida, T. Nakajima, Y. Honda, O. Kitao, H. Nakai, 
 T. Vreven, K. Throssell, J. A. Montgomery, Jr., J. E. Peralta, 
 F. Ogliaro, M. J. Bearpark, J. J. Heyd, E. N. Brothers, K. N. Kudin, 
 V. N. Staroverov, T. A. Keith, R. Kobayashi, J. Normand, 
 K. Raghavachari, A. P. Rendell, J. C. Burant, S. S. Iyengar, 
 J. Tomasi, M. Cossi, J. M. Millam, M. Klene, C. Adamo, R. Cammi, 
 J. W. Ochterski, R. L. Martin, K. Morokuma, O. Farkas, 
 J. B. Foresman, and D. J. Fox, Gaussian, Inc., Wallingford CT, 2016.
 
 ******************************************
 Gaussian 16:  ES64L-G16RevA.03 25-Dec-2016
                25-Oct-2023 
 ******************************************
 %nprocshared=20
 Will use up to   20 processors via shared memory.
 %mem=20GB
 -------------------------
 # td PBE1PBE/6-311g(2d,p)
 -------------------------
 1/38=1,172=1/1;
 2/12=2,17=6,18=5,40=1/2;
 3/5=4,6=6,7=102,11=9,25=1,30=1,74=-13/1,2,3,8;
 4//1;
 5/5=2,38=5/2;
 8/6=1,10=2/1;
 9/42=1,70=2/14;
 6/7=2,8=2,9=2,10=2/1;
 99/5=1,9=1/99;
 -
 6
 -
 Symbolic Z-matrix:
 Charge =  0 Multiplicity = 1
 C                     1.75078  -0.60563  0. 
 C                     2.9236    0.06916  0. 
 C                     4.23549  -0.67327   0. 
 C                     3.04976   1.57088   0. 
 C                     0.4093   -0.06063  0. 
 C                    -0.70041  -0.83629   0. 
 C                    -2.11139  -0.4218    0. 
 C                    -3.13398  -1.54958   0. 
 C                    -2.49737   0.87233   0. 
 C                    -3.90552   1.38913   0. 
 H                     1.80384  -1.69554   0. 
 H                     4.09259  -1.75842   0.00001 
 H                     4.84114  -0.40996  -0.87958 
 H                     4.84114  -0.40995   0.87958 
 H                     2.08835   2.08911  -0.00003 
 H                     3.61429   1.91213   0.8795 
 H                     3.61435   1.91213  -0.87947 
 H                     0.30383   1.02198  0. 
 H                    -0.54154  -1.91537   0. 
 H                    -2.6444   -2.52806   0. 
 H                    -3.78431  -1.51194   0.88224 
 H                    -3.7843   -1.51194  -0.88225 
 H                    -1.72842   1.64404   0. 
 H                    -4.652     0.59058  0. 
 H                    -4.09307   2.02272   0.87902 
 H                    -4.09307   2.02272  -0.87902 
 
                          Input orientation:                          
 ---------------------------------------------------------------------
 Center     Atomic      Atomic             Coordinates (Angstroms)
 Number     Number       Type             X           Y           Z
 ---------------------------------------------------------------------
      1          6           0        1.750780   -0.605632   -0.000001
      2          6           0        2.923599    0.069155   -0.000001
      3          6           0        4.235490   -0.673273    0.000000
      4          6           0        3.049762    1.570878    0.000000
      5          6           0        0.409297   -0.060626   -0.000001
      6          6           0       -0.700408   -0.836292    0.000001
      7          6           0       -2.111394   -0.421800    0.000000
      8          6           0       -3.133981   -1.549581    0.000000
      9          6           0       -2.497367    0.872331    0.000001
     10          6           0       -3.905517    1.389134    0.000000
     11          1           0        1.803844   -1.695544    0.000000
     12          1           0        4.092591   -1.758416    0.000008
     13          1           0        4.841138   -0.409963   -0.879583
     14          1           0        4.841142   -0.409952    0.879577
     15          1           0        2.088349    2.089108   -0.000031
     16          1           0        3.614289    1.912134    0.879501
     17          1           0        3.614346    1.912130   -0.879465
     18          1           0        0.303831    1.021984   -0.000003
     19          1           0       -0.541535   -1.915368    0.000003
     20          1           0       -2.644396   -2.528058    0.000003
     21          1           0       -3.784305   -1.511940    0.882244
     22          1           0       -3.784300   -1.511944   -0.882248
     23          1           0       -1.728418    1.644035    0.000001
     24          1           0       -4.651995    0.590582   -0.000002
     25          1           0       -4.093071    2.022722    0.879019
     26          1           0       -4.093069    2.022724   -0.879018
 ---------------------------------------------------------------------
                    Distance matrix (angstroms):
                    1          2          3          4          5
     1  C    0.000000
     2  C    1.353086   0.000000
     3  C    2.485631   1.507401   0.000000
     4  C    2.534670   1.507013   2.538142   0.000000
     5  C    1.447967   2.517649   3.874931   3.103846   0.000000
     6  C    2.462017   3.735406   4.938589   4.456259   1.353921
     7  C    3.866547   5.058873   6.351864   5.532477   2.546435
     8  C    4.975131   6.270134   7.421389   6.926467   3.843411
     9  C    4.497903   5.480143   6.907985   5.590940   3.052721
    10  C    5.997732   6.955514   8.398185   6.957653   4.551859
    11  H    1.091203   2.089979   2.637791   3.495973   2.148888
    12  H    2.610170   2.169460   1.094512   3.488795   4.055755
    13  H    3.219047   2.163371   1.099913   2.811837   4.531767
    14  H    3.219050   2.163371   1.099913   2.811830   4.531770
    15  H    2.715801   2.185830   3.498709   1.092189   2.727741
    16  H    3.253511   2.155724   2.800668   1.099395   3.864878
    17  H    3.253530   2.155724   2.800641   1.099394   3.864914
    18  H    2.177796   2.787663   4.281570   2.800254   1.087735
    19  H    2.640098   3.993180   4.935865   5.005130   2.084262
    20  H    4.797217   6.143947   7.125522   7.016032   3.925973
    21  H    5.677756   6.947963   8.111648   7.548946   4.524485
    22  H    5.677752   6.947960   8.111644   7.548944   4.524482
    23  H    4.143165   4.911365   6.398290   4.778740   2.734172
    24  H    6.513559   7.593518   8.976899   7.763893   5.103014
    25  H    6.467729   7.336400   8.798068   7.210888   5.038287
    26  H    6.467727   7.336398   8.798066   7.210886   5.038285
                    6          7          8          9         10
     6  C    0.000000
     7  C    1.470607   0.000000
     8  C    2.535953   1.522358   0.000000
     9  C    2.479608   1.350463   2.504184   0.000000
    10  C    3.901954   2.549188   3.038308   1.499991   0.000000
    11  H    2.647563   4.117221   4.939982   5.009431   6.489379
    12  H    4.880897   6.346335   7.229589   7.095659   8.595162
    13  H    5.627091   7.007960   8.104006   7.501440   8.972981
    14  H    5.627095   7.007964   8.104011   7.501441   8.972982
    15  H    4.041674   4.893107   6.364966   4.744401   6.034600
    16  H    5.190759   6.245336   7.635191   6.261553   7.589106
    17  H    5.190798   6.245381   7.635235   6.261603   7.589158
    18  H    2.112270   2.813863   4.293192   2.805193   4.225330
    19  H    1.090709   2.166842   2.618125   3.405370   4.715518
    20  H    2.577045   2.172651   1.094126   3.403566   4.115194
    21  H    3.277998   2.182978   1.096673   2.849440   3.034679
    22  H    3.277996   2.182977   1.096674   2.849443   3.034684
    23  H    2.684926   2.101034   3.489239   1.089408   2.191970
    24  H    4.201310   2.734880   2.623864   2.172971   1.093122
    25  H    4.522919   3.267324   3.801825   2.154610   1.099675
    26  H    4.522919   3.267324   3.801827   2.154610   1.099675
                   11         12         13         14         15
    11  H    0.000000
    12  H    2.289610   0.000000
    13  H    3.413435   1.775480   0.000000
    14  H    3.413441   1.775479   1.759160   0.000000
    15  H    3.795331   4.338252   3.820578   3.820586   0.000000
    16  H    4.131171   3.804631   3.160960   2.626262   1.770138
    17  H    4.131185   3.804615   2.626240   3.160905   1.770139
    18  H    3.104029   4.699503   4.838521   4.838522   2.079245
    19  H    2.355658   4.636783   5.658011   5.658016   4.790837
    20  H    4.525474   6.780807   7.828998   7.829004   6.611891
    21  H    5.660342   7.929980   8.872241   8.695558   6.945072
    22  H    5.660338   7.929977   8.695548   8.872241   6.945062
    23  H    4.861035   6.742464   6.939138   6.939138   3.842629
    24  H    6.848666   9.054589   9.586153   9.586156   6.904913
    25  H    7.026506   9.059510   9.425005   9.259485   6.243964
    26  H    7.026505   9.059511   9.259483   9.425004   6.243953
                   16         17         18         19         20
    16  H    0.000000
    17  H    1.758966   0.000000
    18  H    3.539071   3.539113   0.000000
    19  H    5.717881   5.717915   3.056580   0.000000
    20  H    7.723986   7.724026   4.614633   2.190300   0.000000
    21  H    8.152514   8.340738   4.889988   3.384769   1.763587
    22  H    8.340695   8.152561   4.889986   3.384766   1.763586
    23  H    5.421247   5.421297   2.125320   3.752072   4.271461
    24  H    8.417332   8.417383   4.974567   4.814111   3.708958
    25  H    7.708153   7.906249   4.594225   5.375373   4.856020
    26  H    7.906199   7.708208   4.594222   5.375374   4.856022
                   21         22         23         24         25
    21  H    0.000000
    22  H    1.764492   0.000000
    23  H    3.868488   3.868490   0.000000
    24  H    2.439640   2.439645   3.107582   0.000000
    25  H    3.548124   3.961220   2.551012   1.770903   0.000000
    26  H    3.961216   3.548130   2.551010   1.770903   1.758037
                   26
    26  H    0.000000
 Stoichiometry    C10H16
 Framework group  C1[X(C10H16)]
 Deg. of freedom    72
 Full point group                 C1      NOp   1
 Largest Abelian subgroup         C1      NOp   1
 Largest concise Abelian subgroup C1      NOp   1
                         Standard orientation:                         
 ---------------------------------------------------------------------
 Center     Atomic      Atomic             Coordinates (Angstroms)
 Number     Number       Type             X           Y           Z
 ---------------------------------------------------------------------
      1          6           0        1.750780   -0.605632   -0.000001
      2          6           0        2.923599    0.069155   -0.000001
      3          6           0        4.235490   -0.673273    0.000000
      4          6           0        3.049762    1.570878    0.000000
      5          6           0        0.409297   -0.060626   -0.000001
      6          6           0       -0.700408   -0.836292    0.000001
      7          6           0       -2.111394   -0.421800    0.000000
      8          6           0       -3.133981   -1.549581    0.000000
      9          6           0       -2.497367    0.872331    0.000001
     10          6           0       -3.905517    1.389134    0.000000
     11          1           0        1.803844   -1.695544    0.000000
     12          1           0        4.092591   -1.758416    0.000008
     13          1           0        4.841138   -0.409963   -0.879583
     14          1           0        4.841142   -0.409952    0.879577
     15          1           0        2.088349    2.089108   -0.000031
     16          1           0        3.614289    1.912134    0.879501
     17          1           0        3.614346    1.912130   -0.879465
     18          1           0        0.303831    1.021984   -0.000003
     19          1           0       -0.541535   -1.915368    0.000003
     20          1           0       -2.644396   -2.528058    0.000003
     21          1           0       -3.784305   -1.511940    0.882244
     22          1           0       -3.784300   -1.511944   -0.882248
     23          1           0       -1.728418    1.644035    0.000001
     24          1           0       -4.651995    0.590582   -0.000002
     25          1           0       -4.093071    2.022722    0.879019
     26          1           0       -4.093069    2.022724   -0.879018
 ---------------------------------------------------------------------
 Rotational constants (GHZ):           3.1070914           0.4583373           0.4033999
 Standard basis: 6-311G(2d,p) (5D, 7F)
 There are   346 symmetry adapted cartesian basis functions of A   symmetry.
 There are   326 symmetry adapted basis functions of A   symmetry.
   326 basis functions,   508 primitive gaussians,   346 cartesian basis functions
    38 alpha electrons       38 beta electrons
       nuclear repulsion energy       478.5372676265 Hartrees.
 NAtoms=   26 NActive=   26 NUniq=   26 SFac= 1.00D+00 NAtFMM=   60 NAOKFM=F Big=F
 Integral buffers will be    131072 words long.
 Regular integral format.
 Two-electron integral symmetry is turned on.
 One-electron integrals computed using PRISM.
 NBasis=   326 RedAO= T EigKep=  1.43D-04  NBF=   326
 NBsUse=   326 1.00D-06 EigRej= -1.00D+00 NBFU=   326
 ExpMin= 1.03D-01 ExpMax= 4.56D+03 ExpMxC= 6.82D+02 IAcc=3 IRadAn=         5 AccDes= 0.00D+00
 Harris functional with IExCor= 1009 and IRadAn=       5 diagonalized for initial guess.
 HarFok:  IExCor= 1009 AccDes= 0.00D+00 IRadAn=         5 IDoV= 1 UseB2=F ITyADJ=14
 ICtDFT=  3500011 ScaDFX=  1.000000  1.000000  1.000000  1.000000
 FoFCou: FMM=F IPFlag=           0 FMFlag=      100000 FMFlg1=           0
         NFxFlg=           0 DoJE=T BraDBF=F KetDBF=T FulRan=T
         wScrn=  0.000000 ICntrl=       500 IOpCl=  0 I1Cent=   200000004 NGrid=           0
         NMat0=    1 NMatS0=      1 NMatT0=    0 NMatD0=    1 NMtDS0=    0 NMtDT0=    0
 Petite list used in FoFCou.
 Requested convergence on RMS density matrix=1.00D-08 within 128 cycles.
 Requested convergence on MAX density matrix=1.00D-06.
 Requested convergence on             energy=1.00D-06.
 No special actions if energy rises.
 Integral accuracy reduced to 1.0D-05 until final iterations.
 Initial convergence to 1.0D-05 achieved.  Increase integral accuracy.
 SCF Done:  E(RPBE1PBE) =  -390.274139149     A.U. after   12 cycles
            NFock= 12  Conv=0.91D-08     -V/T= 2.0050
 DoSCS=F DFT=T ScalE2(SS,OS)=  1.000000  1.000000
 ExpMin= 1.03D-01 ExpMax= 4.56D+03 ExpMxC= 6.82D+02 IAcc=3 IRadAn=         5 AccDes= 0.00D+00
 HarFok:  IExCor=  205 AccDes= 0.00D+00 IRadAn=         5 IDoV=-2 UseB2=F ITyADJ=14
 ICtDFT= 12500011 ScaDFX=  1.000000  1.000000  1.000000  1.000000
 Range of M.O.s used for correlation:    11   326
 NBasis=   326 NAE=    38 NBE=    38 NFC=    10 NFV=     0
 NROrb=    316 NOA=    28 NOB=    28 NVA=   288 NVB=   288

 **** Warning!!: The largest alpha MO coefficient is  0.16608711D+02

 Orbital symmetries:
       Occupied  (A) (A) (A) (A) (A) (A) (A) (A) (A) (A) (A) (A)
                 (A) (A) (A) (A) (A) (A) (A) (A) (A) (A) (A) (A)
                 (A) (A) (A) (A) (A) (A) (A) (A) (A) (A) (A) (A)
                 (A) (A)
       Virtual   (A) (A) (A) (A) (A) (A) (A) (A) (A) (A) (A) (A)
                 (A) (A) (A) (A) (A) (A) (A) (A) (A) (A) (A) (A)
                 (A) (A) (A) (A) (A) (A) (A) (A) (A) (A) (A) (A)
                 (A) (A) (A) (A) (A) (A) (A) (A) (A) (A) (A) (A)
                 (A) (A) (A) (A) (A) (A) (A) (A) (A) (A) (A) (A)
                 (A) (A) (A) (A) (A) (A) (A) (A) (A) (A) (A) (A)
                 (A) (A) (A) (A) (A) (A) (A) (A) (A) (A) (A) (A)
                 (A) (A) (A) (A) (A) (A) (A) (A) (A) (A) (A) (A)
                 (A) (A) (A) (A) (A) (A) (A) (A) (A) (A) (A) (A)
                 (A) (A) (A) (A) (A) (A) (A) (A) (A) (A) (A) (A)
                 (A) (A) (A) (A) (A) (A) (A) (A) (A) (A) (A) (A)
                 (A) (A) (A) (A) (A) (A) (A) (A) (A) (A) (A) (A)
                 (A) (A) (A) (A) (A) (A) (A) (A) (A) (A) (A) (A)
                 (A) (A) (A) (A) (A) (A) (A) (A) (A) (A) (A) (A)
                 (A) (A) (A) (A) (A) (A) (A) (A) (A) (A) (A) (A)
                 (A) (A) (A) (A) (A) (A) (A) (A) (A) (A) (A) (A)
                 (A) (A) (A) (A) (A) (A) (A) (A) (A) (A) (A) (A)
                 (A) (A) (A) (A) (A) (A) (A) (A) (A) (A) (A) (A)
                 (A) (A) (A) (A) (A) (A) (A) (A) (A) (A) (A) (A)
                 (A) (A) (A) (A) (A) (A) (A) (A) (A) (A) (A) (A)
                 (A) (A) (A) (A) (A) (A) (A) (A) (A) (A) (A) (A)
                 (A) (A) (A) (A) (A) (A) (A) (A) (A) (A) (A) (A)
                 (A) (A) (A) (A) (A) (A) (A) (A) (A) (A) (A) (A)
                 (A) (A) (A) (A) (A) (A) (A) (A) (A) (A) (A) (A)
    12 initial guesses have been made.
 Convergence on wavefunction:    0.001000000000000
 Iteration     1 Dimension    12 NMult     0 NNew     12
 CISAX will form    12 AO SS matrices at one time.
 New state      3 was old state      4
 Iteration     2 Dimension    18 NMult    12 NNew      6
 Iteration     3 Dimension    24 NMult    18 NNew      6
 Iteration     4 Dimension    30 NMult    24 NNew      6
 Iteration     5 Dimension    36 NMult    30 NNew      6
 ***********************************************************************
 Excited states from <AA,BB:AA,BB> singles matrix:
 ***********************************************************************
 
 Ground to excited state transition densities written to RWF  633
 Ground to excited state transition electric dipole moments (Au):
       state          X           Y           Z        Dip. S.      Osc.
         1         2.8398     -0.2224      0.0000      8.1142      0.8207
         2        -0.0268     -0.2711     -0.0000      0.0742      0.0098
         3        -0.0000      0.0000     -0.1192      0.0142      0.0021
 Ground to excited state transition velocity dipole moments (Au):
       state          X           Y           Z        Dip. S.      Osc.
         1        -0.4332      0.0354     -0.0000      0.1889      0.8302
         2         0.0070      0.0536     -0.0000      0.0029      0.0098
         3         0.0000      0.0000      0.0221      0.0005      0.0015
 Ground to excited state transition magnetic dipole moments (Au):
       state          X           Y           Z
         1        -0.0000     -0.0000     -1.0709
         2         0.0000     -0.0000     -0.1743
         3         0.1548     -0.1070      0.0000
 Ground to excited state transition velocity quadrupole moments (Au):
       state          XX          YY          ZZ          XY          XZ          YZ
         1        -0.3732      0.1557     -0.0088     -0.5876      0.0000     -0.0000
         2         0.4822      0.0438     -0.0160     -0.3292      0.0000      0.0000
         3        -0.0000      0.0000      0.0000      0.0000      0.1856      0.1269
 <0|del|b> * <b|rxdel|0> + <0|del|b> * <b|delr+rdel|0>
 Rotatory Strengths (R) in cgs (10**-40 erg-esu-cm/Gauss)
       state          XX          YY          ZZ    R(velocity)    E-M Angle
         1         0.0009      0.0009      0.0002      0.0006       90.00
         2        -0.0006     -0.0001      0.0000     -0.0002       90.00
         3         0.0003      0.0005      0.0001      0.0003       90.00
 1/2[<0|r|b>*<b|rxdel|0> + (<0|rxdel|b>*<b|r|0>)*]
 Rotatory Strengths (R) in cgs (10**-40 erg-esu-cm/Gauss)
       state          XX          YY          ZZ     R(length)
         1         0.0007     -0.0002      0.0010      0.0005
         2         0.0000     -0.0009     -0.0001     -0.0003
         3         0.0007      0.0002      0.0003      0.0004
  1/2[<0|del|b>*<b|r|0> + (<0|r|b>*<b|del|0>)*] (Au)
       state          X           Y           Z        Dip. S.   Osc.(frdel)
         1        -1.2302     -0.0079     -0.0000      1.2381      0.8254
         2        -0.0002     -0.0145      0.0000      0.0147      0.0098
         3        -0.0000      0.0000     -0.0026      0.0026      0.0018

 Excitation energies and oscillator strengths:
 
 Excited State   1:      Singlet-A      4.1284 eV  300.32 nm  f=0.8207  <S**2>=0.000
      38 -> 39         0.70947
      38 <- 39        -0.10132
 This state for optimization and/or second-order correction.
 Total Energy, E(TD-HF/TD-DFT) =  -390.122423626    
 Copying the excited state density for this state as the 1-particle RhoCI density.
 
 Excited State   2:      Singlet-A      5.4048 eV  229.39 nm  f=0.0098  <S**2>=0.000
      37 -> 39         0.59975
      38 -> 40         0.36792
 
 Excited State   3:      Singlet-A      5.9345 eV  208.92 nm  f=0.0021  <S**2>=0.000
      38 -> 41         0.61933
      38 -> 42         0.13210
      38 -> 43         0.29938
 SavETr:  write IOETrn=   770 NScale= 10 NData=  16 NLR=1 NState=    3 LETran=      64.

 **********************************************************************

            Population analysis using the SCF density.

 **********************************************************************

 Orbital symmetries:
       Occupied  (A) (A) (A) (A) (A) (A) (A) (A) (A) (A) (A) (A)
                 (A) (A) (A) (A) (A) (A) (A) (A) (A) (A) (A) (A)
                 (A) (A) (A) (A) (A) (A) (A) (A) (A) (A) (A) (A)
                 (A) (A)
       Virtual   (A) (A) (A) (A) (A) (A) (A) (A) (A) (A) (A) (A)
                 (A) (A) (A) (A) (A) (A) (A) (A) (A) (A) (A) (A)
                 (A) (A) (A) (A) (A) (A) (A) (A) (A) (A) (A) (A)
                 (A) (A) (A) (A) (A) (A) (A) (A) (A) (A) (A) (A)
                 (A) (A) (A) (A) (A) (A) (A) (A) (A) (A) (A) (A)
                 (A) (A) (A) (A) (A) (A) (A) (A) (A) (A) (A) (A)
                 (A) (A) (A) (A) (A) (A) (A) (A) (A) (A) (A) (A)
                 (A) (A) (A) (A) (A) (A) (A) (A) (A) (A) (A) (A)
                 (A) (A) (A) (A) (A) (A) (A) (A) (A) (A) (A) (A)
                 (A) (A) (A) (A) (A) (A) (A) (A) (A) (A) (A) (A)
                 (A) (A) (A) (A) (A) (A) (A) (A) (A) (A) (A) (A)
                 (A) (A) (A) (A) (A) (A) (A) (A) (A) (A) (A) (A)
                 (A) (A) (A) (A) (A) (A) (A) (A) (A) (A) (A) (A)
                 (A) (A) (A) (A) (A) (A) (A) (A) (A) (A) (A) (A)
                 (A) (A) (A) (A) (A) (A) (A) (A) (A) (A) (A) (A)
                 (A) (A) (A) (A) (A) (A) (A) (A) (A) (A) (A) (A)
                 (A) (A) (A) (A) (A) (A) (A) (A) (A) (A) (A) (A)
                 (A) (A) (A) (A) (A) (A) (A) (A) (A) (A) (A) (A)
                 (A) (A) (A) (A) (A) (A) (A) (A) (A) (A) (A) (A)
                 (A) (A) (A) (A) (A) (A) (A) (A) (A) (A) (A) (A)
                 (A) (A) (A) (A) (A) (A) (A) (A) (A) (A) (A) (A)
                 (A) (A) (A) (A) (A) (A) (A) (A) (A) (A) (A) (A)
                 (A) (A) (A) (A) (A) (A) (A) (A) (A) (A) (A) (A)
                 (A) (A) (A) (A) (A) (A) (A) (A) (A) (A) (A) (A)
 The electronic state is 1-A.
 Alpha  occ. eigenvalues --  -10.23141 -10.22641 -10.21755 -10.21667 -10.21481
 Alpha  occ. eigenvalues --  -10.21454 -10.21346 -10.21332 -10.21233 -10.21130
 Alpha  occ. eigenvalues --   -0.84944  -0.83202  -0.78233  -0.74428  -0.71330
 Alpha  occ. eigenvalues --   -0.70008  -0.66132  -0.60231  -0.53912  -0.52389
 Alpha  occ. eigenvalues --   -0.49363  -0.47219  -0.44884  -0.44443  -0.43270
 Alpha  occ. eigenvalues --   -0.42228  -0.40949  -0.39827  -0.39568  -0.38576
 Alpha  occ. eigenvalues --   -0.38434  -0.37795  -0.36310  -0.34365  -0.33922
 Alpha  occ. eigenvalues --   -0.33192  -0.26985  -0.19966
 Alpha virt. eigenvalues --   -0.03893   0.04829   0.05569   0.06055   0.06551
 Alpha virt. eigenvalues --    0.08791   0.09823   0.10446   0.10945   0.11407
 Alpha virt. eigenvalues --    0.12852   0.12976   0.14466   0.14660   0.14794
 Alpha virt. eigenvalues --    0.16014   0.16174   0.17887   0.19679   0.21638
 Alpha virt. eigenvalues --    0.23330   0.23775   0.25691   0.28950   0.29137
 Alpha virt. eigenvalues --    0.29145   0.30528   0.31317   0.33268   0.33323
 Alpha virt. eigenvalues --    0.33828   0.33971   0.35128   0.36634   0.38398
 Alpha virt. eigenvalues --    0.39716   0.41328   0.41912   0.42005   0.42012
 Alpha virt. eigenvalues --    0.43670   0.44732   0.45470   0.46272   0.48513
 Alpha virt. eigenvalues --    0.50348   0.50809   0.52013   0.54993   0.55190
 Alpha virt. eigenvalues --    0.55432   0.55749   0.56474   0.56619   0.56875
 Alpha virt. eigenvalues --    0.57269   0.57699   0.58263   0.59472   0.59483
 Alpha virt. eigenvalues --    0.60269   0.60366   0.60972   0.61518   0.61694
 Alpha virt. eigenvalues --    0.63080   0.63415   0.65444   0.65447   0.67692
 Alpha virt. eigenvalues --    0.68224   0.68408   0.72692   0.72927   0.74496
 Alpha virt. eigenvalues --    0.74713   0.75733   0.77604   0.79027   0.79887
 Alpha virt. eigenvalues --    0.81753   0.82132   0.83640   0.85532   0.86931
 Alpha virt. eigenvalues --    0.88173   0.90299   0.90363   0.94021   0.94734
 Alpha virt. eigenvalues --    0.96855   0.98211   0.99261   0.99791   1.01519
 Alpha virt. eigenvalues --    1.02012   1.02785   1.04360   1.04416   1.04796
 Alpha virt. eigenvalues --    1.05811   1.07336   1.08634   1.09718   1.12657
 Alpha virt. eigenvalues --    1.14755   1.16944   1.18865   1.20053   1.22111
 Alpha virt. eigenvalues --    1.23184   1.24870   1.24996   1.25389   1.27436
 Alpha virt. eigenvalues --    1.28166   1.30854   1.31591   1.33104   1.36179
 Alpha virt. eigenvalues --    1.38149   1.38585   1.42424   1.47130   1.47517
 Alpha virt. eigenvalues --    1.47848   1.48777   1.50755   1.51513   1.52651
 Alpha virt. eigenvalues --    1.54604   1.57916   1.60541   1.61662   1.62468
 Alpha virt. eigenvalues --    1.69459   1.70482   1.71347   1.72941   1.75791
 Alpha virt. eigenvalues --    1.77923   1.79082   1.81838   1.83394   1.84118
 Alpha virt. eigenvalues --    1.86553   1.88401   1.92435   1.92978   1.95691
 Alpha virt. eigenvalues --    1.97277   1.99253   2.02401   2.03702   2.12996
 Alpha virt. eigenvalues --    2.15788   2.17455   2.19052   2.20745   2.21460
 Alpha virt. eigenvalues --    2.21797   2.22147   2.24100   2.25236   2.25611
 Alpha virt. eigenvalues --    2.27262   2.28562   2.30294   2.31532   2.34177
 Alpha virt. eigenvalues --    2.34772   2.34948   2.35750   2.38709   2.39395
 Alpha virt. eigenvalues --    2.43164   2.44605   2.47568   2.50959   2.53480
 Alpha virt. eigenvalues --    2.54201   2.54845   2.55533   2.57332   2.57989
 Alpha virt. eigenvalues --    2.62572   2.63271   2.66304   2.68796   2.71330
 Alpha virt. eigenvalues --    2.71639   2.73410   2.76542   2.78893   2.80558
 Alpha virt. eigenvalues --    2.84088   2.85821   2.88485   2.92752   2.93529
 Alpha virt. eigenvalues --    2.97321   2.98057   2.99027   3.04497   3.06830
 Alpha virt. eigenvalues --    3.10547   3.10899   3.14747   3.15721   3.18261
 Alpha virt. eigenvalues --    3.18996   3.19160   3.20273   3.20511   3.22974
 Alpha virt. eigenvalues --    3.27208   3.27747   3.28137   3.31026   3.33990
 Alpha virt. eigenvalues --    3.35074   3.35726   3.36532   3.39903   3.40446
 Alpha virt. eigenvalues --    3.41226   3.43613   3.44955   3.46866   3.49100
 Alpha virt. eigenvalues --    3.49299   3.49301   3.52349   3.53468   3.54524
 Alpha virt. eigenvalues --    3.54694   3.54970   3.56426   3.56695   3.60802
 Alpha virt. eigenvalues --    3.62923   3.64689   3.67925   3.68255   3.68321
 Alpha virt. eigenvalues --    3.69595   3.71532   3.71800   3.77233   3.79087
 Alpha virt. eigenvalues --    3.79403   3.80847   3.83106   3.87883   3.89406
 Alpha virt. eigenvalues --    3.92283   3.94945   3.98988   4.05018   4.08113
 Alpha virt. eigenvalues --    4.09978   4.17814   4.19334   4.20333   4.21097
 Alpha virt. eigenvalues --    4.23417   4.24903   4.28370   4.30827   4.36089
 Alpha virt. eigenvalues --    4.38874   4.47576   4.53748   4.59625   4.62874
 Alpha virt. eigenvalues --    4.79711   4.93576   5.17309  23.81801  23.86780
 Alpha virt. eigenvalues --   23.94561  24.04560  24.07811  24.14169  24.19786
 Alpha virt. eigenvalues --   24.21837  24.30725  24.38331
          Condensed to atoms (all electrons):
               1          2          3          4          5          6
     1  C    4.800340   0.625402  -0.052333  -0.042690   0.420883  -0.012874
     2  C    0.625402   4.840677   0.425079   0.410165  -0.019166  -0.005863
     3  C   -0.052333   0.425079   4.789875  -0.052014   0.002272  -0.000028
     4  C   -0.042690   0.410165  -0.052014   4.776590  -0.005571   0.000074
     5  C    0.420883  -0.019166   0.002272  -0.005571   4.803290   0.597114
     6  C   -0.012874  -0.005863  -0.000028   0.000074   0.597114   4.833018
     7  C   -0.001567   0.000080  -0.000001   0.000020  -0.019031   0.449194
     8  C   -0.000027  -0.000003  -0.000000   0.000000   0.001392  -0.056838
     9  C    0.000174   0.000020  -0.000000  -0.000019  -0.010382  -0.051986
    10  C   -0.000012  -0.000000   0.000000  -0.000000   0.000075   0.001844
    11  H    0.401758  -0.044143  -0.012716   0.007453  -0.054764   0.000159
    12  H   -0.004930  -0.028311   0.399530   0.005200   0.000190  -0.000034
    13  H   -0.001211  -0.034503   0.392627  -0.000831  -0.000136   0.000016
    14  H   -0.001211  -0.034503   0.392627  -0.000830  -0.000136   0.000016
    15  H   -0.005747  -0.025224   0.005428   0.400014   0.000328   0.000161
    16  H   -0.000704  -0.033143  -0.001486   0.394108   0.000288   0.000012
    17  H   -0.000704  -0.033143  -0.001486   0.394109   0.000288   0.000012
    18  H   -0.050373  -0.003022  -0.000232   0.001655   0.384335  -0.035410
    19  H   -0.005371   0.000554  -0.000085   0.000036  -0.053843   0.405970
    20  H   -0.000050   0.000001  -0.000000  -0.000000   0.000496  -0.005459
    21  H    0.000006   0.000000   0.000000  -0.000000  -0.000125   0.001557
    22  H    0.000006   0.000000   0.000000  -0.000000  -0.000125   0.001557
    23  H    0.000192  -0.000003  -0.000001   0.000002   0.002560  -0.013251
    24  H    0.000000  -0.000000   0.000000  -0.000000   0.000069  -0.000152
    25  H    0.000000  -0.000000  -0.000000  -0.000000   0.000001   0.000069
    26  H    0.000000  -0.000000  -0.000000  -0.000000   0.000001   0.000069
               7          8          9         10         11         12
     1  C   -0.001567  -0.000027   0.000174  -0.000012   0.401758  -0.004930
     2  C    0.000080  -0.000003   0.000020  -0.000000  -0.044143  -0.028311
     3  C   -0.000001  -0.000000  -0.000000   0.000000  -0.012716   0.399530
     4  C    0.000020   0.000000  -0.000019  -0.000000   0.007453   0.005200
     5  C   -0.019031   0.001392  -0.010382   0.000075  -0.054764   0.000190
     6  C    0.449194  -0.056838  -0.051986   0.001844   0.000159  -0.000034
     7  C    4.759184   0.375945   0.638647  -0.033250   0.000054   0.000000
     8  C    0.375945   4.828660  -0.032364  -0.006340  -0.000062  -0.000000
     9  C    0.638647  -0.032364   4.880657   0.399108   0.000075   0.000000
    10  C   -0.033250  -0.006340   0.399108   4.767960   0.000000   0.000000
    11  H    0.000054  -0.000062   0.000075   0.000000   0.629285   0.006885
    12  H    0.000000  -0.000000   0.000000   0.000000   0.006885   0.573748
    13  H   -0.000000   0.000000  -0.000000   0.000000   0.000232  -0.027206
    14  H   -0.000000   0.000000  -0.000000   0.000000   0.000232  -0.027206
    15  H    0.000027  -0.000000  -0.000033  -0.000002  -0.000186  -0.000441
    16  H   -0.000001   0.000000  -0.000001   0.000000  -0.000319  -0.000068
    17  H   -0.000001   0.000000  -0.000001   0.000000  -0.000319  -0.000068
    18  H   -0.011076  -0.000158   0.004656  -0.000031   0.007353   0.000045
    19  H   -0.049659  -0.007876   0.006346  -0.000254   0.008441  -0.000002
    20  H   -0.027472   0.401407   0.002616   0.000491  -0.000008   0.000000
    21  H   -0.030929   0.398100  -0.003727  -0.000356   0.000001   0.000000
    22  H   -0.030929   0.398100  -0.003727  -0.000356   0.000001   0.000000
    23  H   -0.045154   0.007953   0.402286  -0.044761  -0.000001  -0.000000
    24  H   -0.004683   0.005655  -0.030204   0.400216  -0.000000  -0.000000
    25  H   -0.001283  -0.000194  -0.033247   0.399102   0.000000   0.000000
    26  H   -0.001283  -0.000194  -0.033247   0.399102   0.000000   0.000000
              13         14         15         16         17         18
     1  C   -0.001211  -0.001211  -0.005747  -0.000704  -0.000704  -0.050373
     2  C   -0.034503  -0.034503  -0.025224  -0.033143  -0.033143  -0.003022
     3  C    0.392627   0.392627   0.005428  -0.001486  -0.001486  -0.000232
     4  C   -0.000831  -0.000830   0.400014   0.394108   0.394109   0.001655
     5  C   -0.000136  -0.000136   0.000328   0.000288   0.000288   0.384335
     6  C    0.000016   0.000016   0.000161   0.000012   0.000012  -0.035410
     7  C   -0.000000  -0.000000   0.000027  -0.000001  -0.000001  -0.011076
     8  C    0.000000   0.000000  -0.000000   0.000000   0.000000  -0.000158
     9  C   -0.000000  -0.000000  -0.000033  -0.000001  -0.000001   0.004656
    10  C    0.000000   0.000000  -0.000002   0.000000   0.000000  -0.000031
    11  H    0.000232   0.000232  -0.000186  -0.000319  -0.000319   0.007353
    12  H   -0.027206  -0.027206  -0.000441  -0.000068  -0.000068   0.000045
    13  H    0.598001  -0.039631  -0.000087  -0.001374   0.005002   0.000011
    14  H   -0.039631   0.598002  -0.000087   0.005002  -0.001374   0.000011
    15  H   -0.000087  -0.000087   0.578313  -0.027853  -0.027852   0.003567
    16  H   -0.001374   0.005002  -0.027853   0.590705  -0.037202  -0.000060
    17  H    0.005002  -0.001374  -0.027852  -0.037202   0.590705  -0.000060
    18  H    0.000011   0.000011   0.003567  -0.000060  -0.000060   0.625840
    19  H    0.000003   0.000003  -0.000014   0.000002   0.000002   0.009074
    20  H    0.000000   0.000000  -0.000000   0.000000   0.000000   0.000070
    21  H   -0.000000  -0.000000   0.000000   0.000000  -0.000000  -0.000006
    22  H   -0.000000  -0.000000   0.000000  -0.000000   0.000000  -0.000006
    23  H    0.000000   0.000000   0.000045  -0.000002  -0.000002   0.004141
    24  H   -0.000000  -0.000000  -0.000000  -0.000000  -0.000000   0.000008
    25  H   -0.000000   0.000000   0.000000   0.000000  -0.000000  -0.000004
    26  H    0.000000  -0.000000   0.000000  -0.000000   0.000000  -0.000004
              19         20         21         22         23         24
     1  C   -0.005371  -0.000050   0.000006   0.000006   0.000192   0.000000
     2  C    0.000554   0.000001   0.000000   0.000000  -0.000003  -0.000000
     3  C   -0.000085  -0.000000   0.000000   0.000000  -0.000001   0.000000
     4  C    0.000036  -0.000000  -0.000000  -0.000000   0.000002  -0.000000
     5  C   -0.053843   0.000496  -0.000125  -0.000125   0.002560   0.000069
     6  C    0.405970  -0.005459   0.001557   0.001557  -0.013251  -0.000152
     7  C   -0.049659  -0.027472  -0.030929  -0.030929  -0.045154  -0.004683
     8  C   -0.007876   0.401407   0.398100   0.398100   0.007953   0.005655
     9  C    0.006346   0.002616  -0.003727  -0.003727   0.402286  -0.030204
    10  C   -0.000254   0.000491  -0.000356  -0.000356  -0.044761   0.400216
    11  H    0.008441  -0.000008   0.000001   0.000001  -0.000001  -0.000000
    12  H   -0.000002   0.000000   0.000000   0.000000  -0.000000  -0.000000
    13  H    0.000003   0.000000  -0.000000  -0.000000   0.000000  -0.000000
    14  H    0.000003   0.000000  -0.000000  -0.000000   0.000000  -0.000000
    15  H   -0.000014  -0.000000   0.000000   0.000000   0.000045  -0.000000
    16  H    0.000002   0.000000   0.000000  -0.000000  -0.000002  -0.000000
    17  H    0.000002   0.000000  -0.000000   0.000000  -0.000002  -0.000000
    18  H    0.009074   0.000070  -0.000006  -0.000006   0.004141   0.000008
    19  H    0.624438   0.006224   0.000119   0.000119  -0.000081  -0.000050
    20  H    0.006224   0.568725  -0.026267  -0.026267  -0.000403  -0.000188
    21  H    0.000119  -0.026267   0.575687  -0.034958  -0.000228   0.000132
    22  H    0.000119  -0.026267  -0.034958   0.575688  -0.000228   0.000132
    23  H   -0.000081  -0.000403  -0.000228  -0.000228   0.632166   0.006871
    24  H   -0.000050  -0.000188   0.000132   0.000132   0.006871   0.574044
    25  H    0.000021  -0.000017   0.001077  -0.000453  -0.002637  -0.028433
    26  H    0.000021  -0.000017  -0.000453   0.001077  -0.002637  -0.028433
              25         26
     1  C    0.000000   0.000000
     2  C   -0.000000  -0.000000
     3  C   -0.000000  -0.000000
     4  C   -0.000000  -0.000000
     5  C    0.000001   0.000001
     6  C    0.000069   0.000069
     7  C   -0.001283  -0.001283
     8  C   -0.000194  -0.000194
     9  C   -0.033247  -0.033247
    10  C    0.399102   0.399102
    11  H    0.000000   0.000000
    12  H    0.000000   0.000000
    13  H   -0.000000   0.000000
    14  H    0.000000  -0.000000
    15  H    0.000000   0.000000
    16  H    0.000000  -0.000000
    17  H   -0.000000   0.000000
    18  H   -0.000004  -0.000004
    19  H    0.000021   0.000021
    20  H   -0.000017  -0.000017
    21  H    0.001077  -0.000453
    22  H   -0.000453   0.001077
    23  H   -0.002637  -0.002637
    24  H   -0.028433  -0.028433
    25  H    0.589257  -0.036262
    26  H   -0.036262   0.589257
 Mulliken charges:
               1
     1  C   -0.068957
     2  C   -0.040948
     3  C   -0.287055
     4  C   -0.287472
     5  C   -0.050301
     6  C   -0.108946
     7  C    0.033166
     8  C   -0.313158
     9  C   -0.135648
    10  C   -0.282534
    11  H    0.050590
    12  H    0.102668
    13  H    0.109086
    14  H    0.109086
    15  H    0.099644
    16  H    0.112095
    17  H    0.112094
    18  H    0.059675
    19  H    0.055862
    20  H    0.106119
    21  H    0.120370
    22  H    0.120370
    23  H    0.053173
    24  H    0.105016
    25  H    0.113002
    26  H    0.113002
 Sum of Mulliken charges =  -0.00000
 Mulliken charges with hydrogens summed into heavy atoms:
               1
     1  C   -0.018367
     2  C   -0.040948
     3  C    0.033785
     4  C    0.036361
     5  C    0.009374
     6  C   -0.053084
     7  C    0.033166
     8  C    0.033701
     9  C   -0.082475
    10  C    0.048487
 Electronic spatial extent (au):  <R**2>=           2813.7618
 Charge=             -0.0000 electrons
 Dipole moment (field-independent basis, Debye):
    X=              0.1223    Y=              0.3353    Z=              0.0000  Tot=              0.3569
 Quadrupole moment (field-independent basis, Debye-Ang):
   XX=            -56.3183   YY=            -59.5463   ZZ=            -66.8959
   XY=              0.5937   XZ=              0.0000   YZ=             -0.0000
 Traceless Quadrupole moment (field-independent basis, Debye-Ang):
   XX=              4.6019   YY=              1.3739   ZZ=             -5.9758
   XY=              0.5937   XZ=              0.0000   YZ=             -0.0000
 Octapole moment (field-independent basis, Debye-Ang**2):
  XXX=              3.4407  YYY=             -1.9184  ZZZ=              0.0000  XYY=             -1.3039
  XXY=              3.4531  XXZ=             -0.0000  XZZ=              0.3994  YZZ=              2.4766
  YYZ=              0.0000  XYZ=              0.0000
 Hexadecapole moment (field-independent basis, Debye-Ang**3):
 XXXX=          -3150.2138 YYYY=           -548.1053 ZZZZ=           -100.0678 XXXY=             11.5218
 XXXZ=             -0.0004 YYYX=            -10.7522 YYYZ=             -0.0001 ZZZX=              0.0002
 ZZZY=              0.0001 XXYY=           -624.4724 XXZZ=           -553.9402 YYZZ=           -109.9623
 XXYZ=             -0.0000 YYXZ=              0.0001 ZZXY=              3.6101
 N-N= 4.785372676265D+02 E-N=-1.861445216315D+03  KE= 3.883139850642D+02
 1\1\GINC-CN08\SP\RPBE1PBE TD-FC\6-311G(2d,p)\C10H16\2100011837\25-Oct-
 2023\0\\# td PBE1PBE/6-311g(2d,p)\\6\\0,1\C,0,1.75078,-0.605632,-0.000
 001\C,0,2.923599,0.069155,-0.000001\C,0,4.23549,-0.673273,0.\C,0,3.049
 762,1.570878,0.\C,0,0.409297,-0.060626,-0.000001\C,0,-0.700408,-0.8362
 92,0.000001\C,0,-2.111394,-0.4218,0.\C,0,-3.133981,-1.549581,0.\C,0,-2
 .497367,0.872331,0.000001\C,0,-3.905517,1.389134,0.\H,0,1.803844,-1.69
 5544,0.\H,0,4.092591,-1.758416,0.000008\H,0,4.841138,-0.409963,-0.8795
 83\H,0,4.841142,-0.409952,0.879577\H,0,2.088349,2.089108,-0.000031\H,0
 ,3.614289,1.912134,0.879501\H,0,3.614346,1.91213,-0.879465\H,0,0.30383
 1,1.021984,-0.000003\H,0,-0.541535,-1.915368,0.000003\H,0,-2.644396,-2
 .528058,0.000003\H,0,-3.784305,-1.51194,0.882244\H,0,-3.7843,-1.511944
 ,-0.882248\H,0,-1.728418,1.644035,0.000001\H,0,-4.651995,0.590582,-0.0
 00002\H,0,-4.093071,2.022722,0.879019\H,0,-4.093069,2.022724,-0.879018
 \\Version=ES64L-G16RevA.03\State=1-A\HF=-390.2741391\RMSD=9.124e-09\PG
 =C01 [X(C10H16)]\\@


 QUANTUM MECHANICS IS BOHRING -- M.S. GORDON
 Job cpu time:       0 days  0 hours 25 minutes 23.9 seconds.
 Elapsed time:       0 days  0 hours  1 minutes 16.9 seconds.
 File lengths (MBytes):  RWF=   1568 Int=      0 D2E=      0 Chk=     48 Scr=     32
 Normal termination of Gaussian 16 at Wed Oct 25 13:05:35 2023.
